# vtk DataFile Version 5.1
vtk output
ASCII
DATASET STRUCTURED_POINTS
DIMENSIONS 20 20 20
SPACING 0.005 0.005 0.005
ORIGIN 0.2189 -0.051172 0.02882
POINT_DATA 8000
FIELD FieldData 1
potential 1 8000 double
0.03029838896 0.031219149659 0.032078023305 0.032865754805 0.03357401135 0.034194320862 0.034718626167 0.035140459011 0.035454225058 
0.035656778231 0.035746437162 0.03572253218 0.035585975858 0.035337587754 0.034980075198 0.034516853834 0.033952990148 0.03329497997 
0.03255074525 0.031728802828 0.027680310805 0.028467657838 0.029200512373 0.029872002711 0.030475217694 0.031003512319 0.031450444631 
0.031810089013 0.032077797527 0.032250791258 0.032327650264 0.032307889943 0.03219240926 0.031982172089 0.031678882154 0.031285507224 
0.030806030816 0.030245358253 0.029610123478 0.028907753785 0.025326206853 0.026002342618 0.026630212481 0.02720474294 0.027720463332 
0.028172140966 0.028554345351 0.028862001538 0.029091453147 0.029239818719 0.029305977404 0.029289801952 0.029191930169 0.029013185793 
0.028755122686 0.028419846664 0.028010212889 0.027530337865 0.02698563488 0.026382531619 0.023176770131 0.023759049435 0.024298772891 
0.024791635493 0.025233783949 0.025620867492 0.025948574936 0.026212650786 0.026409589727 0.026537047556 0.026593985896 0.02658057126 
0.026497153006 0.026344703275 0.026124323911 0.025837533165 0.025486509083 0.025074467079 0.024605960923 0.024086492232 0.021204738812 
0.021707432241 0.022172519413 0.022596658621 0.022976529289 0.023309067215 0.023590460238 0.023817296946 0.023986533007 0.024096148858 
0.024145284186 0.024133895072 0.024062552345 0.023931881763 0.023742901223 0.023496747711 0.023195056122 0.022840577919 0.022436954467 
0.021989022935 0.019404457762 0.01983956022 0.020241532098 0.020607609875 0.020935138917 0.021221260257 0.021463238523 0.021658324527 
0.021803839038 0.021898017786 0.021940214806 0.021930463608 0.021869097398 0.021756720984 0.021593954437 0.021381798145 0.021121842404 
0.02081626646 0.020468222425 0.020081705563 0.017777268945 0.018154922187 0.018503551631 0.018820559519 0.019103738941 0.019350781801 
0.019559329529 0.019727234023 0.019852398769 0.01993351469 0.019969877831 0.0199615508 0.019908524875 0.019811252387 0.019670422361 
0.019486903179 0.01926227007 0.018998300112 0.018697760545 0.018363759577 0.016320928139 0.01664958274 0.01695294083 0.017228557088 
0.017474319531 0.017688328436 0.017868678107 0.01801355813 0.018121607879 0.018191612668 0.018223055313 0.018215749801 0.018169702409 
0.018085205268 0.017962897545 0.017803748639 0.017609016636 0.017380429994 0.017120169899 0.016830808025 0.015026221563 0.015313208825 
0.015577969527 0.015818339246 0.016032469445 0.016218605721 0.016375187276 0.016500759501 0.01659428256 0.016654932929 0.016682173744 
0.016675847004 0.016635842344 0.016562348632 0.016455887758 0.016317395464 0.016148055713 0.015949351936 0.015723151617 0.01547150198 
0.013879005233 0.014130373447 0.014362172972 0.014572551541 0.014759757831 0.014922286718 0.0150588338 0.015168297789 0.015249734902 
0.015302565192 0.0153262332 0.015320658697 0.015285810468 0.015221751276 0.015128983732 0.015008216963 0.014860401702 0.014687063218 
0.014489554615 0.014269741277 0.01286336867 0.013084309636 0.01328795729 0.013472668704 0.013636941075 0.013779454277 0.013899078917 
0.013994889983 0.014066160129 0.014112365089 0.014133164639 0.014128407056 0.014097987547 0.014042086734 0.013960986213 0.013855346395 
0.013726014874 0.01357417358 0.013401083975 0.013208244044 0.011964161052 0.012159024058 0.012338516363 0.012501235991 0.012645916333 
0.012771379626 0.012876679827 0.012960990366 0.013023703529 0.013064401782 0.013082780362 0.013078729474 0.013052212855 0.013003291002 
0.012932230319 0.012839535646 0.012726057787 0.012592532593 0.012440167069 0.012270242017 0.011167782636 0.01134027077 0.01149900298 
0.011642879515 0.011770721393 0.01188164736 0.011974752332 0.012049328335 0.012104873125 0.012140957615 0.012157417962 0.012154110047 
0.012130989898 0.012088084977 0.012025693465 0.011944156703 0.011844032656 0.011726166662 0.011591550549 0.011441244319 0.010462330817 
0.01061558537 0.010756506332 0.010884110103 0.010997551291 0.011095964726 0.011178687111 0.01124505539 0.011294499307 0.011326771569 
0.011341686787 0.011339146011 0.011319087645 0.011281517981 0.011226607991 0.011154622201 0.011066073262 0.010961642348 0.010842173881 
0.010708584294 0.0098369392967 0.0099735589907 0.010099028702 0.010212645689 0.010313680807 0.01040146582 0.010475287611 0.010534609174 
0.010578938257 0.010608035762 0.010621719951 0.010619992461 0.0106027478 0.010569951545 0.010521581683 0.010457918845 0.010379309473 
0.010286404163 0.010179915278 0.010060718971 0.0092803201563 0.009402538062 0.0095146681311 0.0096161531652 0.0097064939368 0.0097851174445 
0.009851377664 0.0099047203819 0.0099447150701 0.0099711458574 0.0099839422434 0.0099830096882 0.0099682991503 0.0099397254862 0.0098971952213 
0.0098408131681 0.0097708656326 0.0096878776009 0.0095925095863 0.0094855912588 0.00877974041 0.0088894026189 0.0089899062243 0.009080904512 
0.0091620307833 0.0092327469577 0.009292498603 0.0093407178768 0.0093770652751 0.0094012904453 0.0094134189648 0.0094133031743 0.0094008986623 
0.0093760454406 0.0093386279652 0.0092886307259 0.0092261761036 0.0091517613766 0.009066023267 0.0089696876368 0.0083204979198 0.0084192044805 
0.0085095526084 0.0085914197093 0.0086644885631 0.0087283796206 0.0087825109571 0.0088264144934 0.0088596473376 0.0088820628872 0.0088935818533 
0.0088941812416 0.0088837258639 0.0088621030706 0.008829085979 0.0087845818415 0.0087286866178 0.0086617668728 0.0085844368272 0.0084973464087 
0.0078878122233 0.0079768257752 0.0080582941528 0.0081321016436 0.0081980890952 0.0082559392055 0.0083051596323 0.0083452583798 0.0083758336799 
0.0083966584233 0.008407688319 0.0084088201699 0.008399970389 0.0083809714203 0.0083516404511 0.0083118672106 0.0082617131074 0.0082014656971 
0.0081316199163 0.0080527743292 0.0074699603857 0.0075503696804 0.0076238857558 0.0076905386251 0.0077502164249 0.0078026582515 0.0078474665375 
0.0078841671583 0.0079123568864 0.0079317340515 0.0079421639843 0.0079435931603 0.0079359529864 0.0079190735509 0.0078928300782 0.0078571360253 
0.0078120448593 0.0077577644398 0.0076946925431 0.0076233259797 0.034056714591 0.035074463178 0.036023777667 0.036894045908 0.037675465413 
0.038359006796 0.038936633097 0.039400822743 0.039746642383 0.039970095757 0.040068866229 0.040041996246 0.039889581759 0.039613902669 
0.03921750511 0.038704606534 0.038080911227 0.037353597776 0.036531055187 0.035622954325 0.031104544913 0.031976750551 0.032788796988 
0.033532481009 0.034199756703 0.034783255873 0.035276121567 0.035672644034 0.035968009246 0.036158942286 0.0362435667 0.036221131968 
0.036092006007 0.035857578332 0.035520114955 0.035082803353 0.034550940375 0.033930004384 0.033227015383 0.032450083599 0.028469911701 
0.029220378527 0.029917970022 0.030555999358 0.031128047214 0.031627953811 0.032050376202 0.032390120529 0.032643284593 0.032807048722 
0.032879862391 0.032861096666 0.032751117735 0.032550990766 0.032262680783 0.031888941131 0.03143353206 0.030901220399 0.030297909186 
0.029630180973 0.026094541073 0.026742519052 0.02734385666 0.027893063832 0.028385079526 0.02881485724 0.029177870655 0.029469905918 
0.029687593997 0.029828486663 0.029891302996 0.029875380538 0.029781346376 0.029609894105 0.029362730909 0.029041980623 0.028650634648 
0.028192675538 0.027672978696 0.027097217986 0.023941503362 0.024502598701 0.025022503404 0.025496781845 0.025921140042 0.026291621093 
0.026604459807 0.026856145042 0.027043676779 0.027165236346 0.027219414957 0.027205945585 0.027125146093 0.026977773104 0.026764976822 
0.026488750289 0.026151430996 0.025756387399 0.025307548184 0.024809838623 0.021989441688 0.022476683082 0.022927576797 0.023338357035 
0.023705539737 0.024025726961 0.024295882555 0.024513106998 0.024675174784 0.024780012369 0.024826854785 0.024815328054 0.024745634523 
0.024618400848 0.024434732203 0.02419603414 0.023904438744 0.023562695767 0.023174188417 0.02274297323 0.020225256318 0.020649557881 
0.021041765202 0.021398600418 0.021717212388 0.021994797767 0.022228796595 0.022416806643 0.022556891665 0.022647613244 0.022688157763 
0.022678157148 0.022617808425 0.022507633751 0.022348420759 0.022141535209 0.021888669826 0.021592342957 0.021255316773 0.020880957973 
0.018637744139 0.019008194862 0.019350340546 0.019661490385 0.019938892039 0.0201802241 0.020383415614 0.020546563913 0.020668064263 
0.020746742859 0.020781939731 0.020773285936 0.020720798224 0.020624979709 0.020486536547 0.020306672084 0.020086882696 0.019829211351 
0.019536032332 0.019210120209 0.017214427082 0.017538836294 0.017838258312 0.018110216667 0.018352502481 0.018563180175 0.018740314315 
0.018882417141 0.018988134271 0.019056619884 0.019087221587 0.019079662645 0.019034007219 0.018950476966 0.018829699935 0.018672859265 
0.018481177537 0.018256381495 0.018000544407 0.01771591458 0.015941179904 0.01622617798 0.016488994393 0.016727545975 0.016939899642 
0.017124321086 0.017279291678 0.017403498424 0.017495924289 0.017555828861 0.017582584735 0.017576043081 0.017536013824 0.017463031486 
0.017357523183 0.0172203502 0.017052778257 0.016855950319 0.016631881815 0.016382421205 0.014803344494 0.015054509187 0.015285920286 
0.015495848726 0.015682550992 0.015844608993 0.015980709387 0.016089753501 0.016170860359 0.016223372394 0.016246923922 0.016241232826 
0.016206294538 0.016142364832 0.016049917139 0.015929644952 0.015782515213 0.015609817324 0.015412925592 0.015193455506 0.013786570937 
0.014008584108 0.014213037146 0.014398317091 0.014563062918 0.014705990358 0.014825969471 0.014922078482 0.014993568903 0.015039917049 
0.015060756175 0.015055883993 0.015025314459 0.014969214538 0.014887972606 0.014782156791 0.014652665544 0.014500446427 0.014326793368 
0.014133137728 0.01287739338 0.01307436523 0.013255528436 0.013419645826 0.013565472821 0.013691954203 0.013798169411 0.013883249091 
0.013946600489 0.013987710122 0.01400630947 0.014002246176 0.013975461621 0.013926165862 0.01385460476 0.013761272522 0.013646914048 
0.013512325356 0.013358634521 0.013187018554 0.012063567707 0.012238838436 0.012399925917 0.012545738942 0.012675306794 0.012787669548 
0.012882028198 0.012957661356 0.013014075503 0.013050786738 0.013067562865 0.01306424566 0.013040867355 0.012997478377 0.012934313523 
0.012851761291 0.012750447856 0.012631059268 0.012494501953 0.012341881241 0.011333415121 0.011489886248 0.011633568984 0.011763584942 
0.011879067674 0.011979283812 0.012063454246 0.012131024614 0.012181473196 0.012214450034 0.012229723907 0.012227189879 0.012206809714 
0.012168658965 0.012112814739 0.012039592579 0.011949539562 0.011843249649 0.011721536807 0.011585297843 0.010675403837 0.010815562345 
0.010944108608 0.011060357155 0.011163672244 0.011253378457 0.011328796615 0.011389425294 0.011434798452 0.01146457867 0.011478652808 
0.011476882994 0.011459181578 0.011425564324 0.011376123078 0.011311086285 0.011230827129 0.01113591467 0.011027013074 0.010904926553 
0.010077700169 0.01020357983 0.010318955338 0.010423281497 0.010515996616 0.010596564638 0.010664415281 0.010719032577 0.01076004701 
0.010787206193 0.010800256888 0.010799166846 0.010783836154 0.010754224921 0.010710406223 0.01065248004 0.010580757892 0.010495696664 
0.01039792063 0.010288142453 0.0095282482248 0.0096416234345 0.0097454471603 0.0098393223526 0.0099227849414 0.0099953940816 0.010056684913 
0.010106106355 0.010143357611 0.01016815911 0.010180375344 0.010179892139 0.010166604799 0.010140465618 0.010101495976 0.010049755427 
0.0099854860175 0.0099090646475 0.0098210406097 0.0097220222296 0.009015880042 0.0091182051455 0.0092118395487 0.0092964838746 0.0093718091188 
0.0094374013339 0.0094928656379 0.0095377546398 0.0095717109281 0.0095944550894 0.0096058932172 0.0096058578351 0.0095943036618 0.0095711517731 
0.0095363704122 0.0094900199053 0.0094322920455 0.0093634949418 0.0092840894933 0.009194604612 0.008531500838 0.0086240265619 0.0087086557722 
0.0087851390059 0.0088532320986 0.0089126048548 0.0089628947812 0.0090037011194 0.009034681274 0.0090556003822 0.0090662388125 0.0090665058089 
0.0090563574342 0.0090357108197 0.0090045377206 0.0089628887603 0.0089109164424 0.0088488807311 0.0087771489118 0.0086961948611 0.037477493137 
0.038573218057 0.03959493034 0.04053131051 0.041371470126 0.04210591987 0.04272607068 0.04322478583 0.043596096201 0.043835708706 
0.043941414536 0.043911883472 0.043747477449 0.043449728285 0.043022376662 0.042469751975 0.041798263943 0.041015275268 0.040129950012 
0.039152592298 0.034266326669 0.03520839353 0.03608552392 0.036888454229 0.037608444056 0.038237559423 0.038768555892 0.039195477416 
0.039513477855 0.039718987032 0.039809750517 0.039784816708 0.03964458013 0.039390454264 0.039025082107 0.038552498434 0.037977730292 
0.037306823609 0.036547895267 0.035709266677 0.031403653639 0.032216734517 0.032972687132 0.0336637399 0.034282984842 0.034823725073 
0.035280096626 0.035646977245 0.035920198876 0.03609679838 0.036174917426 0.036153924349 0.036033860894 0.035816055005 0.035502706007 
0.035097082231 0.0346034084 0.034026879396 0.033373788348 0.032651210811 0.02883336992 0.029537508031 0.030191168184 0.030788082661 
0.031322353604 0.031788795063 0.032182144515 0.032498346053 0.032733865658 0.032886200222 0.032953730957 0.032935896977 0.032832724488 
0.032645428533 0.0323757547 0.032026418347 0.031600881881 0.03110353917 0.030539542901 0.029915021858 0.026514758895 0.027126360535 
0.027693316482 0.028210492439 0.028672984486 0.029076305384 0.029416394571 0.02968975957 0.0298933062 0.030024988855 0.030083417648 
0.030068116057 0.029979231118 0.029817665891 0.029584890425 0.029283048344 0.02891512087 0.028484722544 0.027996277522 0.027454825201 
0.024418871428 0.024951681433 0.025444951903 0.025894324947 0.026295792183 0.026645596087 0.02694039067 0.027177229389 0.027353569018 
0.027467660135 0.027518418848 0.027505253507 0.027428354108 0.027288458856 0.027086811435 0.026825227674 0.026506229725 0.026132777946 
0.025708571782 0.025237948578 0.02252473206 0.022990061228 0.023420445074 0.023812116667 0.02416163246 0.024465992534 0.024722242518 
0.024927959595 0.025081116916 0.025180218199 0.025224277969 0.02521285637 0.025146103627 0.025024607469 0.024849376574 0.024622001802 
0.024344596746 0.024019677481 0.023650397273 0.023240265877 0.020815186285 0.02122277789 0.021599344769 0.021941672362 0.022246990797 
0.022512500387 0.022735814359 0.022915061103 0.023048433322 0.023134724353 0.023173086055 0.023163223004 0.0231050902 0.022999166367 
0.022846495831 0.022648325243 0.02240637511 0.022122892518 0.021800489527 0.021442097489 0.019274650106 0.019632642996 0.019963031996 
0.020263163002 0.020530538867 0.020762903424 0.020958326242 0.021114983098 0.021231522747 0.021306849354 0.021340369948 0.021331722368 
0.021280950011 0.021188491587 0.021055071181 0.020881722202 0.020670131791 0.02042207981 0.020139808122 0.019825695243 0.01788791852 
0.018203259338 0.018494022632 0.018757913811 0.018992821493 0.019196844418 0.01936824469 0.01950561386 0.019607777758 0.019673851499 
0.019703283435 0.019695759897 0.019651327176 0.019570317374 0.019453332782 0.019301406738 0.01911583688 0.018898129246 0.018650211251 
0.018374048239 0.016640239517 0.016918808944 0.017175468596 0.017408186239 0.017615209583 0.017794893397 0.017945785214 0.018066674903 
0.018156555923 0.018214701343 0.018240615613 0.018234078162 0.018195098362 0.018123958043 0.018021205244 0.017887697905 0.017724430927 
0.017532810474 0.017314368423 0.017070896192 0.015517483171 0.015764269182 0.015991462856 0.016197343123 0.01638037556 0.016539133797 
0.016672413449 0.016779168875 0.016858541669 0.016909938249 0.01693292748 0.016927304497 0.016893070329 0.016830455812 0.016739926746 
0.016622218136 0.016478145892 0.016308901691 0.016115882517 0.015900506179 0.014506257688 0.014725589084 0.014927344867 0.015110013337 
0.015272306693 0.01541303355 0.015531188111 0.015625808638 0.015696210669 0.015741845517 0.01576236301 0.015757551745 0.015727472108 
0.015672280714 0.015592369189 0.015488285844 0.015360801909 0.015210901972 0.015039742853 0.014848536095 0.01359419669 0.013789721168 
0.013969373328 0.014131971861 0.014276354069 0.014401548875 0.014506593415 0.014590767449 0.014653448766 0.014694178697 0.014712631378 
0.014708608489 0.014682170041 0.01463344657 0.014562696496 0.014470448628 0.014357310411 0.014224108503 0.014071857773 0.013901663554 
0.012769527722 0.012944327564 0.013104813179 0.013249959821 0.013378810335 0.013490520457 0.0135842935 0.013659463361 0.013715521841 
0.013752028668 0.01376872204 0.01376547404 0.013742241822 0.01369915196 0.013636390153 0.013554398702 0.013453700784 0.013335020581 
0.013199174542 0.013047144601 0.012020949447 0.012177678105 0.012321437432 0.012451382466 0.01256671876 0.012666737045 0.012750733938 
0.012818121716 0.012868440815 0.012901351653 0.012916574141 0.012914034453 0.012893643593 0.012855465799 0.012799722619 0.012726685185 
0.012636834797 0.012530741432 0.012409169735 0.012272912344 0.011337445227 0.011478360445 0.0116074891 0.011724164022 0.011827745629 
0.011917551262 0.011993041358 0.012053673504 0.012099075575 0.012128864334 0.012142862007 0.01214090738 0.012123005243 0.012089184904 
0.012039542043 0.01197432322 0.011893915891 0.011798825774 0.011689676798 0.011567196883 0.010708542034 0.010835534852 0.01095184846 
0.011056889077 0.011150122091 0.011231045356 0.011299106746 0.011353830424 0.011394872244 0.011421955023 0.011434879193 0.011433500596 
0.011417763595 0.011387692783 0.011343372467 0.011284969853 0.011212834701 0.011127385826 0.011029147138 0.010918758664 0.010124871237 
0.010239578884 0.010344547806 0.010439313716 0.010523445969 0.010596479228 0.010657970498 0.010707526218 0.010744779989 0.010769443624 
0.010781374126 0.010780430533 0.010766564033 0.010739760601 0.01070008276 0.010647677953 0.010582809169 0.010505842743 0.010417241652 
0.010317539457 0.0095786275679 0.0096824309361 0.0097773721691 0.0098630554799 0.0099391213758 0.010005182758 0.010060860688 0.01010578553 
0.010139631182 0.01016216037 0.010173155014 0.010172534597 0.010160225932 0.010136236796 0.010100601064 0.010053451993 0.0099949902616 
0.0099255285967 0.0098454707423 0.0097552644644 0.04054172979 0.041697135054 0.042774033262 0.043760396155 0.044645214345 0.045418306708 
0.046070678342 0.046595187654 0.046985700432 0.04723772573 0.047348562011 0.047316907285 0.047143147755 0.046829140101 0.046378035822 
0.045795403822 0.045087524065 0.044262408053 0.043329381736 0.042299213965 0.037137498213 0.038134870139 0.039063171312 0.039912574327 
0.040673918521 0.041338667331 0.041899699058 0.042350502513 0.042686021433 0.042902696607 0.042998142667 0.042971207254 0.04282224932 
0.042552784564 0.042165749943 0.041665337548 0.041056993651 0.040347447552 0.039544529435 0.038657002095 0.034096624812 0.034960522976 
0.035763494876 0.036497350514 0.037154533665 0.037728211795 0.038211939403 0.038600663024 0.038890028669 0.039076872924 0.03915928802 
0.039136240699 0.039008173274 0.038776267835 0.038443012384 0.038011868912 0.03748735586 0.036875131746 0.036181704505 0.035414513512 
0.03136642567 0.03211703248 0.032813756824 0.033449842852 0.034018933259 0.034515288545 0.034933833491 0.035269941943 0.035520190732 
0.035681880881 0.035753202244 0.03573353116 0.035623047104 0.035422877869 0.035134969239 0.03476231213 0.034308709291 0.03377881725 
0.033178085706 0.032512813108 0.028905489181 0.029559607078 0.030165989657 0.030718947963 0.031213251388 0.031643999441 0.032006981503 
0.032298456643 0.032515507364 0.032655636219 0.032717577283 0.032700681732 0.032605092284 0.032431744095 0.032182373995 0.031859323331 
0.03146584782 0.031005825455 0.030483918237 0.029905330014 0.026681954475 0.027253575559 0.027782792943 0.028264825828 0.028695329035 
0.029070253186 0.029385987212 0.029639421367 0.029828008734 0.029949856488 0.030003719029 0.029989140892 0.029906252139 0.029755716457 
0.029538970761 0.029258144387 0.02891586913 0.028515370954 0.028060711533 0.027556205714 0.024670748258 0.025171554671 0.025634680761 
0.026056169685 0.026432245788 0.026759407998 0.027034754537 0.02725566628 0.027420000474 0.027526188079 0.027573223762 0.02756056932 
0.02748831979 0.027357196 0.027168336573 0.026923538647 0.02662497019 0.026275445602 0.025878290561 0.025437178426 0.022851351849 
0.023291278475 0.02369770447 0.02406717548 0.024396498356 0.024682939203 0.024923803806 0.025116890619 0.025260531209 0.025353299946 
0.025394397937 0.025383399478 0.025320375774 0.025205822473 0.025040763227 0.024826719952 0.024565547918 0.024259653615 0.023911799828 
0.023525078174 0.021205785885 0.021593301754 0.02195090908 0.022275698327 0.022564997803 0.022816360393 0.023027618058 0.023196958379 
0.023322895699 0.023404232477 0.023440283365 0.023430631796 0.023375393214 0.023275067372 0.02313047139 0.022942827081 0.022713775012 
0.022445310841 0.022139783059 0.021799819794 0.019717813458 0.020060065908 0.020375565237 0.020661873159 0.020916719747 0.021137974916 
0.021323841673 0.021472759396 0.021583441496 0.021654942151 0.021686643927 0.021678264975 0.021629825572 0.021541724907 0.021414676703 
0.021249738623 0.021048332509 0.020812081652 0.020543015313 0.020243326133 0.018372205211 0.018675296009 0.018954455766 0.019207538298 
0.019432643101 0.019627969993 0.019791982301 0.019923337187 0.020020957479 0.020084026918 0.020112057105 0.020104747968 0.020062142826 
0.019984594287 0.019872671983 0.019727296351 0.019549716499 0.019341216637 0.019103569501 0.018838670918 0.017154748531 0.017423900269 
0.017671529426 0.017895916099 0.018095321309 0.018268275456 0.018413435619 0.0185296598 0.018616069435 0.018671935358 0.018696791079 
0.018690458791 0.018652948768 0.018584491912 0.018485690547 0.018357227146 0.018200130605 0.018015625479 0.017805134819 0.017570281595 
0.016052175635 0.016291821697 0.016512148102 0.016711602415 0.016888785692 0.017042362019 0.017171219386 0.017274445203 0.017351162192 
0.017400791973 0.017422997473 0.017417558899 0.017384461737 0.0173239809 0.017236508878 0.017122684942 0.016983367535 0.016819615349 
0.016632645313 0.01642380013 0.015052079735 0.015266056128 0.015462609007 0.015640429732 0.015798301515 0.015935109603 0.016049869821 
0.016141765412 0.016210129642 0.016254440121 0.016274350788 0.016269725851 0.01624053924 0.016186959297 0.0161093612 0.016008259428 
0.015884368549 0.015738624678 0.015572072665 0.015385862716 0.014142853629 0.014334415296 0.014510240193 0.014669204886 0.014810282184 
0.014932504823 0.015035030126 0.015117151168 0.015178301796 0.015218001563 0.01523598225 0.015232075505 0.015206274816 0.015158724919 
0.015089711842 0.014999692055 0.014889266483 0.014759216561 0.014610423126 0.014443896576 0.013313511647 0.013485478715 0.013643188956 
0.013785684519 0.013912099042 0.014021592685 0.014113486775 0.01418711772 0.014241979815 0.014277700518 0.014294056101 0.014290824171 
0.014268023553 0.014225722354 0.014164225777 0.014083895062 0.013985202513 0.013868821237 0.013735529759 0.013586192336 0.012553740287 
0.012708515063 0.012850333363 0.01297841158 0.013092002064 0.0131903829 0.013272956757 0.013339208959 0.013388622614 0.013420892333 
0.013435759565 0.013433142169 0.013412957643 0.013375316236 0.01332039318 0.013248509029 0.013160078465 0.013055661219 0.012935923751 
0.01280163338 0.011854065211 0.011993682803 0.012121508148 0.012236919847 0.01233923007 0.012427860399 0.012502282798 0.012561983293 
0.012606627305 0.012635857051 0.012649493719 0.012647383985 0.012629509193 0.012595917285 0.012546747405 0.012482268305 0.012402840216 
0.012308938216 0.012201119054 0.012080068194 0.011206002636 0.011332196568 0.011447670336 0.011551848926 0.011644209796 0.011724230547 
0.011791450642 0.011845445723 0.011885867483 0.011912408313 0.011924893988 0.011923227133 0.011907344119 0.011877284486 0.011833164547 
0.011775194324 0.011703687473 0.011619046822 0.011521754969 0.011412405449 0.010602415057 0.010716707934 0.010821232387 0.010915494313 
0.010999038945 0.011071432877 0.011132269485 0.011181170387 0.011217833238 0.011241971778 0.011253443321 0.011252098734 0.011237928589 
0.011210940124 0.011171244945 0.01111901044 0.01105449668 0.010978053821 0.010890102375 0.010791134856 0.04324532641 0.044443270284 
0.045559122632 0.046580702458 0.04749666314 0.048296563045 0.04897162373 0.049513930525 0.049917610107 0.050178003771 0.050292203213 
0.050258954906 0.050078618672 0.049753049117 0.049285908863 0.048682359643 0.047948839982 0.047094148022 0.046127628777 0.045060092703 
0.039705967907 0.040744632242 0.041710877111 0.042594537017 0.043386204846 0.04407730332 0.044660107333 0.045128348108 0.045476786952 
0.045701547833 0.045800216266 0.045771720979 0.04561634589 0.045335646167 0.044932740604 0.044411957517 0.043779038918 0.043040725246 
0.042205188808 0.041281448254 0.036533165788 0.037436386434 0.03827554499 0.039042148888 0.039728339047 0.04032696492 0.040831686232 
0.041237002726 0.041538574829 0.041733176301 0.041818745856 0.041794248541 0.041660005421 0.041417384111 0.041068975836 0.040618391516 
0.040070429762 0.039430856961 0.038706414606 0.037904798887 0.033678405966 0.034466044157 0.035196870092 0.035863858886 0.03646037552 
0.036980300025 0.037418456813 0.03777030767 0.038032044784 0.038200888481 0.038275181578 0.038254105185 0.03813784671 0.037927605453 
0.037625498767 0.037234577625 0.036758902748 0.036203265211 0.035573380878 0.034875765459 0.031101688539 0.031790441134 0.032428726765 
0.033010551989 0.033530424203 0.033983307158 0.034364687822 0.03467083742 0.034898518271 0.035045459404 0.035110249855 0.035092041976 
0.034991070319 0.034808356868 0.034545653209 0.034205604834 0.033791519978 0.033307549027 0.032758396223 0.03214965799 0.028770639367 
0.029374416829 0.029933333771 0.030442286752 0.030896602537 0.031292135872 0.031625024598 0.031892064217 0.032090666908 0.03221887932 
0.032275354213 0.032259534278 0.032171641298 0.032012420378 0.031783396614 0.031486747923 0.031125363767 0.030702664454 0.030222741545 
0.029690102176 0.026658725012 0.027189370209 0.027680035032 0.028126362014 0.028524527298 0.028870811974 0.029162069272 0.029395651892 
0.029569307852 0.029681395346 0.029730818668 0.029717127074 0.029640354124 0.029501190693 0.029301022448 0.029041628796 0.028725377476 
0.028355248992 0.02793468328 0.02746746111 0.024743672699 0.025211259683 0.025643047365 0.026035503571 0.026385267722 0.026689271046 
0.026944908682 0.027149770661 0.027302048821 0.027400290071 0.027443637358 0.027431646212 0.027364437295 0.027242584719 0.027067139845 
0.02683962536 0.026562182636 0.02623727828 0.0258677434 0.025456899507 0.023006316028 0.023419316657 0.023800337388 0.024146296511 
0.02445437301 0.024721976365 0.024946838528 0.02512699685 0.025260851412 0.025347233911 0.025385389732 0.025374939092 0.02531594531 
0.025208908679 0.025054720218 0.024854726273 0.024610718166 0.024324757637 0.023999253973 0.023636994813 0.021429567904 0.021795262208 
0.022132316365 0.022438077623 0.022710167614 0.022946343309 0.02314469426 0.02330355526 0.023421568177 0.023497722375 0.023531390018 
0.023522233456 0.023470310273 0.023376068867 0.023240290213 0.023064077476 0.022848901051 0.022596566289 0.022309123168 0.021988972057 
0.019997873418 0.020322483543 0.02062138589 0.020892351289 0.021133268342 0.021342275372 0.021517719179 0.021658184313 0.021762514665 
0.021829877872 0.021859694806 0.021851693771 0.021805935703 0.021722748153 0.0216028147 0.021447133561 0.021256871838 0.02103361678 
0.020779160427 0.020495434553 0.018696870834 0.018985766181 0.019251564275 0.019492270154 0.019706166874 0.019891606307 0.020047236579 
0.020171796454 0.020264334781 0.020324107005 0.020350603265 0.020343612449 0.020303198521 0.020229641035 0.020123499184 0.019985570256 
0.019816943285 0.019618933308 0.019393031182 0.019140897244 0.017513405378 0.01777116258 0.018008079795 0.018222511684 0.018412909893 
0.018577937235 0.018716326813 0.018827107015 0.018909409953 0.018962613677 0.018986292674 0.018980223176 0.018944473012 0.018879282747 
0.018785095644 0.018662640598 0.018512794637 0.018336673997 0.01813559924 0.017911017988 0.016435201424 0.016665760333 0.016877496583 
0.017068993815 0.017238941114 0.017386173082 0.017509634917 0.017608423 0.017681849016 0.017729378468 0.017750598626 0.017745377412 
0.017713688786 0.017655800049 0.017572071484 0.0174630445 0.017329548676 0.01717252369 0.016993091293 0.016792510191 0.015450898261 
0.015657632663 0.015847316774 0.016018768351 0.016170863523 0.016302575165 0.016412996048 0.01650138817 0.016567102888 0.016609697382 
0.016628817211 0.016624348764 0.016596253331 0.01654471278 0.016470062646 0.016372804746 0.016253605824 0.016113263968 0.015952749391 
0.01577311098 0.014549844516 0.014735670607 0.014906060397 0.015059954362 0.015196396176 0.015314550127 0.015413606258 0.015492894017 
0.015551902637 0.015590221445 0.015607525474 0.015603713855 0.015578762492 0.01553282125 0.01546614716 0.015379165799 0.015272448008 
0.015146696038 0.015002714224 0.014841436021 0.01372227436 0.013889707314 0.014043092182 0.014181583343 0.014304323015 0.014410542442 
0.014499655259 0.014570994263 0.014624115806 0.014658661828 0.014674406626 0.014671193536 0.014648995709 0.014607944682 0.014548245388 
0.014470283772 0.014374523869 0.014261563988 0.014132108259 0.013986967149 0.012959327385 0.013110500828 0.013248919529 0.013373790209 
0.013484439765 0.013580191792 0.013660503613 0.01372484449 0.013772807449 0.01380405832 0.013818404783 0.013815700307 0.013795931434 
0.013759177701 0.013705633066 0.013635592184 0.013549471997 0.013447772651 0.013331110393 0.013200195444 0.01225297371 0.012389754998 
0.012514922489 0.012627780578 0.012727745109 0.01281425773 0.012886815009 0.012944967308 0.012988367022 0.013016713876 0.013029802815 