# vtk DataFile Version 5.1
vtk output
ASCII
DATASET STRUCTURED_POINTS
DIMENSIONS 50 50 50
SPACING 0.002 0.002 0.002
ORIGIN 0.2174 -0.052672 0.02732
POINT_DATA 125000
FIELD FieldData 1
potential 1 125000 double
0.029595413663 0.029982675079 0.030361434431 0.030731197118 0.031091384723 0.031441140659 0.031779962571 0.032107270965 0.032422487251 
0.032725055672 0.033014399615 0.033289978278 0.033551311348 0.033797598631 0.034028418641 0.03424315682 0.034441263876 0.03462224929 
0.034785618604 0.034930978319 0.035058003353 0.035166429568 0.035256078869 0.035326835038 0.035378632665 0.035411478311 0.03542543453 
0.035420541025 0.035396939466 0.035354790142 0.035294204155 0.035215378148 0.035118518294 0.035003782571 0.034871557353 0.034721742095 
0.034554882789 0.034371121237 0.034171074953 0.03395500656 0.033723491226 0.033476904119 0.033215816781 0.032940749593 0.032652112349 
0.032350690583 0.032036910277 0.031711284549 0.03137431365 0.031026587654 0.028550861103 0.028914217212 0.029269933885 0.029617003599 
0.029954808265 0.030282885917 0.030600827347 0.030907794933 0.031203419832 0.031487184812 0.031758534107 0.032017011302 0.032261994514 
0.032493071616 0.032709578458 0.032911031966 0.033096808033 0.033266504253 0.033419652147 0.033555877608 0.033674883697 0.033776405344 
0.033860306409 0.033926487711 0.033974882579 0.034005510229 0.034018424741 0.034013711499 0.033991490216 0.033951889318 0.03389504608 
0.033821273983 0.033730473714 0.033622828593 0.033498716019 0.033358287232 0.033201785552 0.033029594369 0.032842036818 0.032639351161 
0.03242223023 0.032190993321 0.031945934074 0.031688023568 0.031417482281 0.031134842661 0.030840613439 0.030535249981 0.030218826516 
0.029892685396 0.027555846095 0.027897335229 0.02823127612 0.028557327644 0.028874557007 0.029182577495 0.029480920595 0.029769168907 
0.030046822518 0.030313207997 0.030567975956 0.03081056345 0.031040584407 0.031257531652 0.031460797836 0.031649820747 0.031824219166 
0.031983439125 0.032127115101 0.03225488522 0.032366464684 0.032461616311 0.032540203704 0.032602140878 0.032647391523 0.032675986907 
0.032687976076 0.032683477824 0.03266270847 0.032625503792 0.032572154632 0.032502790039 0.03241755081 0.032316622622 0.032200314972 
0.032068566282 0.031921714503 0.031760120339 0.031584028585 0.031393804356 0.031189719589 0.030972317525 0.030742429977 0.030500315355 
0.030246390327 0.029981096326 0.029704906482 0.029418243662 0.029121558875 0.028815353024 0.026603191748 0.026924332051 0.027238297514 
0.027544614599 0.027842869317 0.028132735807 0.02841305934 0.028683810536 0.028944539791 0.029194800779 0.029434307871 0.029662381497 
0.029878495945 0.030082239364 0.030273150385 0.030450753977 0.030614484502 0.030763974916 0.030898842248 0.031018794453 0.031123452501 
0.031212678709 0.031286334634 0.031344474351 0.031386837781 0.031413577164 0.031424739082 0.031420431839 0.031400760249 0.03136582021 
0.031315736811 0.031250333817 0.031170372442 0.031075642663 0.03096634098 0.030842638069 0.030704862724 0.030553080597 0.030387454044 
0.030208832796 0.030017351199 0.029813493492 0.029597577334 0.029369968762 0.029131420807 0.028882158546 0.028622672382 0.028353316253 
0.028074553047 0.02778677999 0.025688093136 0.025990298995 0.026285602527 0.026573677823 0.026854017598 0.027126287016 0.027389854506 
0.027644423184 0.02788965259 0.028124948734 0.02835001484 0.028564319846 0.028767472791 0.028959020073 0.029138651161 0.029305578417 
0.029459487146 0.029599942157 0.029726615027 0.029839197316 0.029937427239 0.030021176698 0.030090253403 0.03014463502 0.030184320619 
0.030209346479 0.030219803314 0.030215714928 0.030197240444 0.030164460568 0.030117482204 0.030056402373 0.029981361003 0.029892455806 
0.029789829312 0.029673627201 0.029543878642 0.029401268037 0.029245934894 0.029078042334 0.028898088241 0.028706364574 0.028503345051 
0.02828943781 0.028065092037 0.027830670903 0.027586559015 0.027333344506 0.027071327334 0.026800686985 0.024805472928 0.025089902354 
0.025367873954 0.025638917091 0.02590254054 0.026158652992 0.026406671626 0.026646137827 0.02687673024 0.027098100782 0.027309817974 
0.02751146207 0.027702577365 0.027882761901 0.028051518579 0.028208430104 0.028353108237 0.028485105838 0.028604288642 0.028710021839 
0.028802247883 0.028880799995 0.028945586573 0.028996580046 0.029033760528 0.029057233184 0.029066991843 0.029063146483 0.02904580645 
0.02901506124 0.028970989717 0.028913713521 0.02884329801 0.028759596932 0.028663204061 0.028554083011 0.028432367711 0.028298306745 
0.028152162332 0.027994274565 0.027825040684 0.027644690604 0.027453654327 0.027252416193 0.027041446221 0.026820912625 0.026591304946 
0.026352988172 0.026106301598 0.025851530584 0.023951497964 0.024219434944 0.024481094952 0.024736177208 0.024984476587 0.025225262131 
0.025458547294 0.025683890844 0.025900955286 0.02610925402 0.026308503254 0.026498288442 0.026678146573 0.026847665665 0.027006451931 
0.027154044616 0.027290085523 0.02741421935 0.027526069444 0.027625396623 0.027711963833 0.027785686768 0.027846476901 0.027894388896 
0.027929268362 0.02795120703 0.027960336963 0.027956717764 0.027940450054 0.027911625399 0.027870168083 0.027816451479 0.027750380731 
0.027672039933 0.027581532193 0.0274790226 0.027364598042 0.027238527433 0.027101075778 0.026952554915 0.026793223985 0.026623406152 
0.026443631049 0.026254279832 0.026055606091 0.025848000108 0.025631854278 0.025407508531 0.025175279552 0.024935507943 0.023123891196 
0.023376101061 0.023622463648 0.023862642256 0.024096133182 0.024322926801 0.024542548918 0.024754591114 0.024958919618 0.025154966883 
0.02534253682 0.025521170832 0.025690476211 0.025850032287 0.025999457683 0.026138319209 0.02626626745 0.026382955631 0.026488112286 
0.0265814329 0.026662766109 0.026731960924 0.026788987883 0.026833825141 0.026866520783 0.0268870727 0.026895458343 0.026892068189 
0.026876916496 0.02684989318 0.026811191231 0.026760825349 0.026698849318 0.026625343629 0.026540409827 0.026444042061 0.026336479984 
0.026217946994 0.026088580205 0.025948718199 0.025798684823 0.025638801924 0.025469523581 0.025291135321 0.025104005785 0.024908505589 
0.024705051289 0.024493775102 0.024275126822 0.0240495077 0.022320491423 0.022557896435 0.02278989331 0.023016066109 0.023236029257 
0.023449571079 0.023656335213 0.023856102981 0.024048481324 0.024233044647 0.024409597954 0.024577794374 0.024737034625 0.024887231113 
0.025027852761 0.025158522209 0.02527888832 0.025388620016 0.025487415711 0.025575130584 0.025651414129 0.02571637162 0.025769864002 
0.02581190773 0.025842540167 0.025861835357 0.025869833884 0.025866680717 0.025852411907 0.025827144625 0.025790886204 0.025743650355 
0.02568556675 0.0256165809 0.025536881035 0.025446356206 0.025345263476 0.025233697195 0.025111960794 0.024980299746 0.024838978136 
0.02468843156 0.024528943565 0.024360925163 0.02418465553 0.024000510338 0.023809010664 0.023609980574 0.023403952704 0.023191207237 
0.021540433506 0.021764265566 0.021982730536 0.0221957823 0.022402953906 0.022604008462 0.02279875014 0.022986812367 0.023167955068 
0.023341870866 0.023508177709 0.023666454497 0.023816472231 0.023957872616 0.024090216973 0.02421295694 0.024326163495 0.024429327854 
0.024522223547 0.024604591968 0.024676341565 0.024737322429 0.024787532585 0.024826961797 0.024855690713 0.024873768849 0.024881291404 
0.024878373625 0.024865037742 0.024841377827 0.024807449731 0.024763212294 0.024708697077 0.02464397728 0.024569044728 0.024484027013 
0.024388943645 0.024283989814 0.024169391586 0.024045393127 0.023912327827 0.023770516834 0.023620558516 0.023462315296 0.023296241815 
0.02312276413 0.022942107208 0.022754589192 0.022560378034 0.022359925459 0.020783940621 0.020994867021 0.021200823164 0.021401426563 
0.021596650034 0.021786043956 0.021969379248 0.022146511923 0.022317085882 0.022480852954 0.02263738842 0.022786597385 0.022927893701 
0.023060908919 0.023185380538 0.023301059026 0.023407562092 0.023504586132 0.023591907621 0.023669348377 0.023736486684 0.023793747147 
0.023840868521 0.023877879328 0.023904837109 0.023921818484 0.023928899189 0.023926167142 0.023913760746 0.023891624701 0.02385982401 
0.023818370315 0.023767268399 0.023706519336 0.023636202463 0.023556252028 0.023466845557 0.023368425759 0.023260507536 0.023143785143 
0.023018440744 0.022884830149 0.022743264364 0.02259408821 0.022437606983 0.02227401399 0.022103796114 0.021927106501 0.021744233542 
0.021555334037 0.020051329329 0.020250189027 0.020444279492 0.020633388577 0.020817319315 0.020995701672 0.021168428386 0.021335256691 
0.021495931847 0.021650137535 0.021797618482 0.021937936708 0.022070953383 0.022196333589 0.022313562407 0.022422279428 0.022522437736 
0.022613592772 0.022695661464 0.022768423346 0.022831768776 0.02288559465 0.022929875252 0.022964610169 0.022989945173 0.023005916243 
0.023012616561 0.023010109341 0.022998480154 0.022977795137 0.022948018177 0.022909170207 0.022861308307 0.022804291027 0.022738189144 
0.022663029456 0.02257893587 0.022486023254 0.022384446058 0.02227451438 0.022156465012 0.022030498193 0.02189710401 0.021756549556 
0.021609100101 0.021455048265 0.021294651313 0.021128152295 0.020955705282 0.020777664755 0.019343304707 0.01953080808 0.019713812141 
0.01989207566 0.020065383925 0.02023356709 0.02039617661 0.020553353774 0.020704816613 0.020850059779 0.020988934361 0.021121129361 
0.021246338563 0.021364169806 0.021474477913 0.021576935688 0.021671134359 0.021756769093 0.021833931306 0.021902320653 0.021961838389 
0.022012349774 0.022053971957 0.022086675363 0.022110475604 0.022125500243 0.022131816719 0.022129526054 0.022118671274 0.022099287466 
0.022071397174 0.022035069632 0.0219900948 0.021936552478 0.021874450482 0.021803821668 0.021724608544 0.021637140458 0.021541558904 
0.021438045586 0.021326839139 0.021208260576 0.02108259943 0.02095013384 0.020811199382 0.020666110922 0.02051479341 0.020357861326 
0.020195487769 0.02002763796 0.018660638583 0.018837506989 0.019010106689 0.019178191834 0.019341589498 0.019500167709 0.019653599747 
0.019801737528 0.01994412529 0.020080934647 0.020211867403 0.020336328449 0.020454187228 0.020565123211 0.020668884295 0.020765095825 
0.020853696329 0.020934427558 0.021006976048 0.021071076526 0.021127031946 0.021174588048 0.021213741115 0.021244507593 0.02126692359 
0.021281100292 0.021287069785 0.021284924223 0.021274794588 0.02125670214 0.02123054786 0.021196387603 0.021154187118 0.021103885177 
0.021045521906 0.020979098991 0.020904647842 0.020822371145 0.02073237196 0.020634883073 0.020530155196 0.020418438871 0.020300121123 
0.020175124589 0.020044185042 0.019907358656 0.019765021989 0.019617070606 0.019463856839 0.019305552021 0.018003941809 0.018170961143 
0.018333807718 0.018492414697 0.018646536129 0.018796006174 0.018940696763 0.019080316098 0.019214748305 0.01934364606 0.019466644777 
0.019583797307 0.019694746888 0.01979927138 0.019896869379 0.019987451433 0.020070688343 0.020146549562 0.020214790815 0.020275313771 
0.020327950275 0.020372468257 0.02040931986 0.020438294974 0.020459454997 0.020472866102 0.020478596989 0.020476665935 0.020467260302 
0.020450251324 0.020425732203 0.020393643865 0.020353961196 0.02030667699 0.020251817797 0.020189287487 0.020119267559 0.020041813772 
0.01995709958 0.019865191135 0.019766523981 0.019661294383 0.019549718197 0.019432104568 0.019308861089 0.019179870321 0.019045510323 
0.018905980845 0.01876146697 0.018612139395 0.017373963453 0.017531611335 0.017685452125 0.017835146719 0.017980610708 0.018121639066 
0.018258075039 0.01838971928 0.018516390659 0.018637798124 0.018753766524 0.0188641063 0.018968368055 0.019066692798 0.019158515217 
0.019243724022 0.019322234994 0.019393588569 0.019457686986 0.01951457964 0.01956412959 0.0196062782 0.01964104868 0.01966811564 
0.019688126692 0.019700829325 0.019706353523 0.019704666308 0.019695824671 0.019679863442 0.01965682081 0.019626668277 0.019589357575 
0.019544882649 0.019493085339 0.019434282343 0.019368397138 0.019295490189 0.019215708839 0.019129247825 0.019036328623 0.018937381246 
0.01883226045 0.018721363184 0.018605002782 0.018483371485 0.018356662962 0.018225059479 0.018088717682 0.017947778104 0.01677074534 
0.016919775115 0.017065144955 0.017206531053 0.017343846131 0.0174769772 0.017605700291 0.017729870851 0.017849292383 0.017963777007 
0.018073041548 0.01817696215 0.018275240598 0.018367698574 0.018454000053 0.018534144927 0.018607798026 0.018674909053 0.018735291388 
0.018788790122 0.018835492845 0.018875200533 0.018907958741 0.018933804627 0.018952766723 0.018964628197 0.0189698944 0.018968387758 
0.018960154094 0.018945226037 0.018923505008 0.018895140393 0.018860041302 0.018818138576 0.018769503735 0.018714130518 0.01865207078 
0.018583404603 0.018508472591 0.018427060095 0.018339510919 0.018246098242 0.018147027886 0.018042527184 0.017932802361 0.017818078769 
0.017698483871 0.017574316836 0.017445599314 0.017312552551 0.016194434634 0.016335342811 0.016472687282 0.016606430111 0.016736165747 
0.01686187045 0.016983330583 0.017100485941 0.017213135476 0.017321066657 0.017424048181 0.017521938262 0.017614506507 0.017701556417 
0.017782877446 0.017858334892 0.017927592903 0.017990761031 0.018047611899 0.018097976312 0.018141921201 0.018179386208 0.018210286505 
0.018234679944 0.018252601301 0.01826407867 0.018269260282 0.018267983299 0.018259959241 0.018245934058 0.018225562864 0.018198865916 
0.018165688413 0.018126256438 0.018080652972 0.018028488385 0.017970017374 0.017905316242 0.01783452693 0.017757790235 0.017675214007 
0.017587169399 0.017493809856 0.017395289219 0.017291822429 0.01718359174 0.017070822316 0.016953544835 0.016832023602 0.016706354373 
0.015644659522 0.015777961514 0.015907870461 0.01603421494 0.01615684176 0.016275714737 0.016390476987 0.016501105323 0.016607391665 
0.016709188064 0.016806339394 0.016898464861 0.016985680403 0.017067663756 0.01714426249 0.01721527696 0.017280585438 0.017340096367 
0.017393570368 0.01744114587 0.017482613128 0.017517976887 0.017547089905 0.017570170032 0.017587055365 0.017597951027 0.017602786719 
0.017601635296 0.017594479801 0.017581537126 0.017562382479 0.017537191759 0.017505649295 0.017468485474 0.017425288824 0.017376048536 
0.01732094274 0.017259951381 0.017193237475 0.017120919783 0.017043163191 0.016960166368 0.016872111111 0.016779180072 0.01668156363 
0.016579468908 0.016472937592 0.01636219739 0.016247401092 0.016128645911 0.015120851693 0.015247033989 0.015369947643 0.015489463317 
0.015605425381 0.015717709643 0.015826330849 0.015930721891 0.01603108385 0.016127141 0.016218771296 0.016305798995 0.016387984806 
0.016465267286 0.016537437174 0.016604346509 0.01666592637 0.016722000764 0.016772523364 0.016817373332 0.016856517312 0.01688983265 
0.016917458342 0.016939316025 0.01695540754 0.016965752721 0.016970200664 0.016969142369 0.016962404641 0.01694998215 0.016931977562 
0.016908257606 0.016878879556 0.016843824802 0.016803103713 0.016756738845 0.016704333003 0.016646774851 0.016583880145 0.016515700806 
0.016442388728 0.016364121183 0.016281053956 0.016193369689 0.016101281826 0.016004820665 0.015904218258 0.015799600169 0.015691416547 
0.015579173449 0.014622243986 0.014741733094 0.014858090579 0.014971214633 0.015080928715 0.015187130143 0.015289653614 0.015388395625 
0.015483273855 0.015574003718 0.015660472414 0.015742573129 0.0158201365 0.015892981292 0.015961031237 0.01602413915 0.016082189291 
0.016135064851 0.016182700378 0.01622502449 0.016262036013 0.016293565435 0.016319685951 0.016340370522 0.016355584351 0.016365432865 
0.016369876007 0.016368928031 0.016362476843 0.016350793232 0.016333754024 0.016311381971 0.016283688453 0.016250600654 0.016212000616 
0.016168245221 0.016119214883 0.016064989979 0.016005666588 0.015941349542 0.015872113328 0.015798266423 0.015719879814 0.0156373174 
0.015550154449 0.015459050185 0.0153639857 0.015265054909 0.015162451122 0.015056133556 0.014147562006 0.014260770296 0.014371008051 
0.014478123381 0.014581998169 0.014682491479 0.01477978313 0.014873148793 0.014962761492 0.0150485051 0.015130268522 0.015207746468 
0.015280965678 0.015349734829 0.01541392472 0.015473464383 0.015528255358 0.0155781776 0.015623155808 0.015663124738 0.015698046006 
0.015727922846 0.015752624576 0.015772210324 0.015786676472 0.015796014972 0.015800241467 0.01579933545 0.015793370135 0.015782339314 
0.015766239985 0.015745003597 0.015718778785 0.015687553239 0.015651264851 0.015609933284 0.015563509495 0.015512328201 0.015456333981 
0.015395641533 0.015330717682 0.015261061802 0.015187064094 0.015108855241 0.015026589747 0.01494048348 0.014850606039 0.014756952273 
0.01465987652 0.014559383984 0.013696486448 0.013803802863 0.013908242057 0.014009730979 0.01410811991 0.014203284452 0.014295098564 
0.014383442821 0.014468221887 0.014549269203 0.014626493398 0.014699740385 0.014768960914 0.014833906771 0.014894569407 0.014950786371 
0.015002537106 0.015049706517 0.015092211971 0.015129996802 0.015163018206 0.01519124139 0.015214636965 0.015233245479 0.015246954204 
0.01525577696 0.015259817653 0.015259015854 0.015253412153 0.015242977179 0.015227754496 0.015207734235 0.015182919543 0.015153374375 
0.0151192848 0.015080238876 0.015036542631 0.014988214424 0.014935336378 0.014878025383 0.014816443087 0.014750618496 0.014680716029 
0.014606824447 0.014529115821 0.014447572927 0.014362554035 0.014274053356 0.014182167504 0.014087129526 0.013268190485 0.013369989518 
0.013469059548 0.013565184596 0.013658388074 0.013748542186 0.013835515549 0.013919180018 0.01399939966 0.014075554849 0.014148585422 
0.014217858796 0.014283246376 0.014344602291 0.014401929709 0.014455222292 0.014504120728 0.014548711173 0.014588909249 0.01462465008 
0.014655901923 0.014682611402 0.014704772727 0.014722343303 0.014735295831 0.014743762384 0.014747595154 0.014746861422 0.014741843456 
0.01473198751 0.014717577147 0.01469861463 0.014675124684 0.014647118697 0.014614625556 0.014577668993 0.014536307882 0.014490540052 
0.014440647896 0.014386551009 0.014328287208 0.014266027411 0.014199785538 0.014130499131 0.014057004521 0.013979962731 0.013899494078 
0.013815701218 0.013728790081 0.013638670111 0.01286041587 0.012957022591 0.013051013925 0.013142276586 0.0132307157 0.013316140814 
0.013398459337 0.013477725515 0.013553714097 0.013626310434 0.013695458165 0.013761025496 0.01382290798 0.013880998933 0.013935282704 
0.013985592338 0.01403180421 0.014073978714 0.014112133237 0.01414597917 0.014175571806 0.014201165225 0.014222116211 0.014238780791 
0.014251087644 0.014259059142 0.014262698614 0.014262063012 0.014257046121 0.014247678666 0.014234017064 0.014216060775 0.014193800156 
0.014167271925 0.014136495682 0.014101518095 0.014062415241 0.014019229673 0.013971981564 0.013920614841 0.013865467089 0.013806622438 
0.013744094567 0.013678000346 0.013608436889 0.013535505834 0.013459444956 0.013380045055 0.013297632528 0.013212209849 0.012472710626 
0.012564445542 0.012653670997 0.012740303236 0.012824209671 0.012905288027 0.012983449883 0.013058513469 0.013130541396 0.013199288659 
0.013265041574 0.013327159172 0.01338577029 0.013440818359 0.013492171016 0.013539833278 0.01358367296 0.013623614592 0.013659576046 
0.013691633636 0.013719657755 0.013743748119 0.013763646029 0.013779445301 0.013791116615 0.013798662125 0.013802110535 0.013801450012 
0.013796663325 0.013787779038 0.013774889263 0.013757836439 0.01373678051 0.013711626136 0.013682459829 0.013649378486 0.013612238038 
0.013571314746 0.013526546134 0.013478049862 0.013425890692 0.013370180495 0.013310992252 0.013248412246 0.013182724178 0.013113587202 
0.013041460955 0.012966166121 0.012888010885 0.012807011627 0.012104314597 0.012191441663 0.012276200511 0.012358463484 0.012438129232 
0.012515102493 0.012589283288 0.012660576018 0.012728901158 0.012794112863 0.012856236025 0.012915108224 0.012970677485 0.013022846785 
0.013071503411 0.013116643538 0.013158167568 0.013196089726 0.0132302046 0.013260564293 0.01328715468 0.013309855455 0.01332873029 
0.013343705108 0.013354784899 0.013361934826 0.013365197016 0.01336464305 0.013360135627 0.013351695149 0.013339365307 0.013323108749 
0.013303138045 0.013279335695 0.013251674789 0.013220273566 0.013185147297 0.013146359862 0.013103967061 0.013058027831 0.013008648641 
0.012955890503 0.012899972328 0.012840687407 0.012778259173 0.012712827795 0.012644317193 0.012572992665 0.012498897376 0.012422043458 
0.011753787289 0.01183661595 0.011917171945 0.011995317992 0.012071018162 0.012144144567 0.012214598032 0.012282293178 0.012347157424 
0.012409112679 0.012468072943 0.012523951297 0.012576598224 0.012626094417 0.01267228013 0.012715114569 0.012754489365 0.012790398921 
0.012822831481 0.012851661646 0.012876849115 0.012898411067 0.012916347633 0.012930550164 0.012941023543 0.012947806224 0.012950857798 
0.012950234474 0.012945912025 0.012937869076 0.012926145702 0.012910807704 0.012891770564 0.012869143946 0.012842934214 0.012813103281 
0.01277987092 0.012743095936 0.012702899119 0.012659387758 0.012612715469 0.012562708857 0.012509569427 0.012453369467 0.012394167862 
0.012332055258 0.012267141929 0.012199471293 0.012129138341 0.012056194148 0.011420446888 0.011499256733 0.011575876837 0.011650191539 
0.011722161227 0.011791675654 0.011858639277 0.011922975844 0.011984606742 0.012043459946 0.012099453433 0.012152532911 0.012202601664 
0.012249584544 0.012293358397 0.01233403148 0.012371458357 0.012405582901 0.012436347942 0.012463712693 0.012487640587 0.012508101938 
0.012525110389 0.012538581046 0.012548537649 0.012554974585 0.012557877687 0.012557238284 0.012553077463 0.012545467719 0.012534309969 
0.012519693263 0.012501585035 0.012480058733 0.012455124064 0.012426837481 0.012395214048 0.012360434037 0.012322322737 0.012281049666 
0.012236667949 0.012189307988 0.01213884235 0.012085562013 0.012029392042 0.011970487704 0.011908873613 0.011844633985 0.011777837467 
0.011708572157 0.011103449515 0.011178478629 0.011251406218 0.011322155163 0.011390606212 0.011456727433 0.011520425706 0.01158162241 
0.011640231046 0.0116961824 0.011749413343 0.011799843502 0.011847422676 0.011892085523 0.011933773417 0.011972435334 0.012008007283 
0.012040429311 0.012069595766 0.012095614831 0.01211836272 0.012137824019 0.012153923418 0.012166734419 0.012176187466 0.012182285162 
0.01218505924 0.012184445647 0.012180477769 0.012173178553 0.012162533962 0.012148583215 0.012131337913 0.012110857273 0.012087276381 
0.012060360848 0.012030324894 0.011997213317 0.011961043164 0.011921860341 0.01187967944 0.011834636969 0.01178683982 0.011736206836 
0.0116828937 0.011626949451 0.01156836261 0.011507337266 0.011443902448 0.011378079639 0.010801933368 0.010873413189 0.010942891384 
0.011010264752 0.011075557407 0.011138508803 0.011199131243 0.011257352905 0.011313131897 0.011366371136 0.011417004051 0.011464999202 
0.011510275336 0.011552766606 0.011592418751 0.011629189571 0.011663021309 0.011693865247 0.011721669031 0.011746422079 0.011768054388 
0.011786575914 0.011801876252 0.011814008415 0.011822973868 0.011828727779 0.011831311672 0.011830718586 0.011826913047 0.011819883184 
0.011809854895 0.011796566698 0.011780165984 0.011760655645 0.011738091847 0.011712518496 0.011683955894 0.011652465891 0.011618036156 
0.011580835239 0.011540849654 0.011498102015 0.011452560504 0.011404483388 0.011353840677 0.011300658846 0.011245068219 0.011187103086 
0.011126812544 0.011064219268 0.01051540984 0.010583536009 0.010649757532 0.010713971358 0.010776105414 0.010836087459 0.010893836091 
0.010949311177 0.011002409598 0.011053123026 0.011101353113 0.011147085875 0.011190189934 0.011230648727 0.011268411813 0.011303421574 
0.011335625805 0.011364997834 0.011391522666 0.011415061738 0.011435648798 0.011453247358 0.011467849001 0.011479413164 0.011488015379 
0.011493467035 0.01149588496 0.011495234941 0.011491605156 0.011484923753 0.011475222291 0.011462542957 0.011446883279 0.011428316992 
0.011406812552 0.011382470927 0.011355239715 0.011325272694 0.011292497161 0.011257130795 0.011219088083 0.011178426657 0.01113524497 
0.011089506282 0.011041374092 0.010990866148 0.010938035286 0.010882907324 0.010825649743 0.010766171421 0.010243023008 0.010308054008 
0.010371225806 0.010432476097 0.010491724503 0.010548919845 0.010603977352 0.010656864286 0.010707464695 0.010755788852 0.010801733929 
0.010845285615 0.010886364628 0.01092498662 0.010960983203 0.010994365037 0.011025072447 0.011053072128 0.011078306047 0.011100750217 
0.011120352757 0.011137132378 0.011151011702 0.011162019984 0.011170087895 0.011175242121 0.011177523819 0.011176893335 0.011173362767 
0.011166963396 0.011157680558 0.011145541094 0.011130615318 0.011112844693 0.011092284261 0.011069104426 0.011043236396 0.011014752051 
0.010983633709 0.01094995537 0.010913747425 0.010875026836 0.010833948867 0.010790491436 0.010744724045 0.010696708631 0.010646542789 
0.010594093533 0.010539516119 0.010482868017 0.0099841384602 0.010046225862 0.01010653511 0.010164999924 0.010221562337 0.010276134902 
0.01032865719 0.010379096234 0.010427396285 0.010473485488 0.010517322708 0.010558865315 0.010598039895 0.010634814876 0.010669150945 
0.010701070389 0.010730405725 0.010757100883 0.010781177546 0.010802572011 0.010821261523 0.010837187015 0.010850402397 0.010860849739 
0.010868556348 0.010873437685 0.010875546369 0.010874867759 0.010871423152 0.010865179217 0.010856223748 0.010844634838 0.010830377694 
0.010813452701 0.010793931844 0.010771831419 0.010747198916 0.010720039159 0.010690402762 0.010658243674 0.010623794312 0.010587015331 
0.010547916313 0.010506559431 0.010463117511 0.010417390247 0.010369550837 0.010319633781 0.010267685045 0.010213795639 0.0097381138709 
0.0097974470687 0.0098550587333 0.0099109181933 0.0099649262618 0.01001704249 0.010067196821 0.010115341875 0.010161444886 0.010205449814 
0.010247295522 0.010286949295 0.010324364778 0.010359483578 0.010392268683 0.010422684033 0.010450656316 0.010476136108 0.010499209046 
0.010519631655 0.010537450961 0.010552682696 0.010565257677 0.01057518155 0.01058237556 0.010586980263 0.010588906384 0.01058821797 
0.01058487197 0.010578913606 0.010570347085 0.010559240694 0.010545577709 0.01052941836 0.010510804487 0.010489707818 0.010466102439 
0.010440212609 0.010411990609 0.01038142994 0.010348611862 0.010313562878 0.010276437267 0.010237059216 0.010195583728 0.010152042103 
0.010106489825 0.010058962664 0.010009515476 0.0099581377208 0.0095042261357 0.0095609755274 0.0096160831449 0.0096694820134 0.0097211087331 
0.0097709150758 0.0098188369232 0.0098648315724 0.0099088650209 0.0099509030274 0.0099908842322 0.010028763567 0.010064515554 0.010098095789 
0.010129434823 0.010158503205 0.010185249363 0.010209548774 0.010231470812 0.010250993248 0.010268113046 0.010282627693 0.010294583393 
0.01030400601 0.010310884571 0.010315231725 0.010317011578 0.010316295079 0.01031303907 0.010307292003 0.010299093698 0.010288430775 
0.010275302494 0.010259758042 0.010241945304 0.010221800589 0.010199379201 0.010174658215 0.010147716969 0.010118670613 0.010087376372 
0.010053980065 0.010018500509 0.0099809801439 0.0099414788096 0.0099000066117 0.0098566468523 0.0098113411145 0.0097641943195 0.0097152252314 
0.0092817965472 0.0093361284751 0.009388868481 0.0094399642266 0.009489354832 0.0095369810633 0.0095828154815 0.0096267910824 0.0096688147479 
0.0097089980332 0.0097472330118 0.0097834746427 0.0098176726812 0.0098497828327 0.0098797814675 0.0099076079777 0.0099332030217 0.0099565180041 
0.0099775168755 0.0099961549769 0.010012414257 0.010026239779 0.010037635757 0.010046721607 0.01005321652 0.010057284231 0.010058918449 
0.010058138867 0.010054972849 0.010049400181 0.010041344418 0.010031153157 0.010018631949 0.010003857235 0.0099867638778 0.0099674886069 
0.0099460449912 0.0099225220648 0.0098968022073 0.0098690008982 0.0098391641502 0.009807305593 0.0097734720923 0.0097376620153 0.0097000268325 
0.0096604896987 0.0096191292265 0.0095759685318 0.0095310181344 0.0094843199672 0.0090700375731 0.0091220817085 0.0091726107073 0.0092215385194 
0.0092688220848 0.0093144153156 0.0093582739086 0.0094003575909 0.0094406311139 0.0094790831222 0.0095156728183 0.0095503770367 0.0095831169631 
0.009613873634 0.0096426069782 0.0096692522593 0.0096937601198 0.0097160959502 0.0097361958617 0.0097540352736 0.0097695683593 0.0097827700008 
0.0097936268729 0.0098021339737 0.0098082822662 0.0098120775023 0.009813539277 0.0098127120897 0.0098095880619 0.009804213801 0.0097966151353 
0.0097867769661 0.0097747645767 0.0097605989496 0.0097443254307 0.009725902553 0.0097053854002 0.0096827657179 0.0096582047042 0.009631648247 
0.0096031476196 0.0095727344295 0.0095404665733 0.0095063318253 0.0094703985804 0.0094327028909 0.0093932543835 0.0093520845076 0.009309182968 
0.0092646285948 0.0088682413428 0.008918149042 0.0089665736999 0.0090134743157 0.0090587867731 0.0091024630456 0.0091444741498 0.0091847783867 
0.0092233502976 0.0092601795191 0.0092952291276 0.0093284597913 0.0093598388972 0.009389324997 0.0094168632076 0.0094424133038 0.0094659220159 
0.0094873200648 0.0095065869059 0.0095236473569 0.0095385064778 0.0095511212998 0.0095614707603 0.0095693610697 0.0095751860458 0.0095787566292 
0.0095800814008 0.0095792240265 0.0095761395735 0.0095708965884 0.0095635620131 0.0095542763597 0.0095427489888 0.0095291282235 0.0095134995613 
0.0094958531661 0.0094762191508 0.0094546536557 0.0094311469481 0.0094057392071 0.0093784984552 0.0093494268445 0.0093185903014 0.0092860189474 
0.0092517119443 0.0092157233707 0.0091780746244 0.0091387575591 0.0090978331854 0.0090552828756 0.0086754398846 0.0087233334413 0.0087698005292 
0.0088147688265 0.0088582145824 0.0089000992942 0.0089403686755 0.0089790149358 0.0090159908485 0.0090512749415 0.00908487575 0.0091167503137 
0.0091468582759 0.0091751390861 0.009201567417 0.0092260836002 0.0092486379501 0.0092689486243 0.0092874084964 0.009303779717 0.0093179981879 