# vtk DataFile Version 5.1
vtk output
ASCII
DATASET STRUCTURED_POINTS
DIMENSIONS 20 20 20
SPACING 0.005 0.005 0.005
ORIGIN 0.2189 -0.051172 0.02882
POINT_DATA 8000
FIELD FieldData 1
potential 1 8000 double
0.0027395536545 0.002674489784 0.0026112852506 0.0025500210531 0.0024907244363 0.0024333502451 0.0023777900041 0.0023239084664 0.0022716109531 
0.0022208598558 0.0021716608287 0.0021240139081 0.0020778968806 0.0020332521357 0.0019900151511 0.0019481214831 0.0019074641063 0.001867994577 
0.001829657063 0.0017923855514 0.0028061476577 0.0027383633541 0.0026725395037 0.002608775412 0.0025471030926 0.0024874851926 0.0024298173248 
0.0023739506778 0.0023197853938 0.0022672583992 0.0022163611779 0.0021670952879 0.002119437904 0.002073336742 0.0020287110825 0.0019854703812 
0.001943537453 0.0019028023517 0.0018632279796 0.0018247596012 0.0028657629079 0.0027954328961 0.0027271649826 0.0026610629077 0.0025971604174 
0.0025354380667 0.0024757870446 0.0024180636901 0.0023621496356 0.0023079600194 0.0022554684212 0.0022046721648 0.0021555543107 0.0021080593281 
0.0020621116298 0.0020175976294 0.001974422337 0.0019324696762 0.0018917025431 0.0018520843431 0.0029178040006 0.0028451190943 0.0027746093052 
0.0027063589929 0.0026404104089 0.0025767431878 0.002515257848 0.0024558107055 0.0023982591811 0.0023425134723 0.0022885268167 0.002236295031 
0.002185801345 0.0021369915517 0.0020897804629 0.0020440522645 0.0019996938861 0.0019565943757 0.0019147093901 0.0018740217 0.0029640412613 
0.0028891419734 0.002816550004 0.0027463091629 0.0026784602634 0.0026129731475 0.0025497550237 0.0024886611842 0.0024295449241 0.0023723062144 
0.0023168949999 0.0022632891288 0.0022114753074 0.0021613927932 0.0021129529971 0.0020660415674 0.0020205323784 0.001976361083 0.0019334363131 
0.0018917633734 0.0030077976088 0.0029307258741 0.0028561050821 0.002783938536 0.0027142495188 0.0026469852474 0.0025820571926 0.0025193256895 
0.0024586453669 0.0023999214752 0.0023430920827 0.0022881274501 0.0022349967996 0.0021836363327 0.0021339608688 0.0020858587925 0.0020392268328 
0.0019939943055 0.0019500760448 0.0019074698428 0.0030526052901 0.0029732741287 0.0028965512232 0.0028224057064 0.0027508203446 0.0026817331954 
0.0026150374242 0.0025506038337 0.0024883031194 0.0024280379655 0.0023697454949 0.002313379471 0.0022588893113 0.0022062069302 0.0021552527098 
0.0021059275905 0.0020581474711 0.0020118424062 0.0019669297089 0.0019233875901 0.0031011570203 0.0030193753641 0.002940375021 0.0028640870106 
0.0027904602327 0.0027194075025 0.0026508296593 0.0025845900465 0.0025205723367 0.0024586711346 0.0023988244304 0.0023409686135 0.0022850411037 
0.002230970139 0.0021786759491 0.0021280796531 0.0020790987983 0.0020316731286 0.0019857199841 0.0019412022351 0.0031550086839 0.0030705261138 
0.0029890057559 0.0029103503917 0.0028344798293 0.0027612941372 0.0026906703882 0.0026224831711 0.00255660836 0.0024929592799 0.0024314426262 
0.0023719919326 0.0023145328849 0.0022589913208 0.0022052880726 0.0021533527644 0.002103106777 0.0020544789235 0.0020074252653 0.0019618563151 
0.0032148542975 0.0031274009584 0.0030431022791 0.0029618341636 0.0028834943534 0.0028079664513 0.0027351185991 0.0026648195555 0.0025969483285 
0.0025314100698 0.0024680984637 0.0024069360962 0.0023478482761 0.0022907471479 0.0022355600337 0.0021822096344 0.002130619512 0.0020807279168 
0.0020324740765 0.0019857701512 0.0032809588867 0.0031902669612 0.0031029292927 0.0030187933295 0.0029377460114 0.0028596642549 0.0027844060318 
0.0027118265169 0.0026418003029 0.002574220397 0.002508986512 0.0024460020489 0.0023851810441 0.0023264289121 0.0022696677525 0.0022148208919 
0.0021618055298 0.0021105621691 0.0020610267084 0.0020131022343 0.0033534731509 0.0032592593404 0.003168604854 0.0030813561044 0.002997376147 
0.0029165254211 0.0028386569429 0.0027636227747 0.0026912787848 0.0026215182933 0.0025542271306 0.0024892982799 0.0024266426596 0.00236614946 
0.0023077297006 0.0022512970828 0.0021967712846 0.0021440832536 0.0020931724735 0.0020439401838 0.0034325405053 0.0033345169917 0.0032402676864 
0.0031496396939 0.0030624826568 0.0029786475382 0.0028979777327 0.0028203066702 0.0027454885158 0.0026733969526 0.0026039202448 0.0025369395117 
0.0024723423194 0.0024100180292 0.0023498502891 0.0022917458707 0.0022356158912 0.0021813923844 0.0021290002516 0.002078376301 0.0035182188959 
0.0034160831132 0.0033179503658 0.0032236699526 0.0031330933142 0.0030460601047 0.0029623978853 0.0028819191795 0.0028044594099 0.0027298949227 
0.0026580949437 0.0025889492677 0.0025223202493 0.0024580777116 0.0023960884741 0.0023362241952 0.0022784003569 0.002222544102 0.0021685825685 
0.0021164576556 0.0036101553229 0.0035035935874 0.0034012839524 0.0033030899878 0.0032088713283 0.0031184441897 0.0030316154558 0.0029481706995 
0.0028679233702 0.0027907470386 0.0027165072421 0.0026450868351 0.0025763373913 0.0025101019937 0.0024462104397 0.002384520187 0.0023249163267 
0.0022673346166 0.002211703337 0.0021579827419 0.0037070290506 0.003595787745 0.0034890594722 0.0033867384946 0.0032886855132 0.003194707453 
0.0031045705806 0.0030180331073 0.0029348845297 0.0028549905789 0.0027782151455 0.0027044358462 0.0026334898078 0.0025651937761 0.0024993450443 
0.0024357642195 0.0023743213438 0.0023149409245 0.0022575624625 0.0022021593256 0.0038059811952 0.0036899186618 0.0035786504664 0.0034720920822 
0.0033701156464 0.0032725076385 0.0031789998357 0.0030893180362 0.0030032336468 0.0029205779905 0.0028412303067 0.0027650435723 0.0026918512028 
0.0026214401441 0.0025535883616 0.0024880800588 0.002424764962 0.0023635542586 0.0023044004214 0.0022472727604 0.0039025727928 0.0037817176617 
0.0036659547564 0.0035552099777 0.0034493530328 0.0033481638408 0.0032513374355 0.0031585770491 0.0030696132138 0.0029842759058 0.0029023900953 
0.0028238113464 0.0027483676381 0.002675829984 0.0026059637655 0.0025385287859 0.0024733642779 0.0024103649397 0.0023494830444 0.002290687532 
0.0039917202768 0.0038663233267 0.0037463077007 0.0036315997326 0.003522065005 0.0034174663979 0.0033175068425 0.0032218358498 0.0031301728997 
0.0030422782936 0.0029579807072 0.0028771066682 0.0027994772874 0.002724857295 0.0026530327093 0.0025837414903 0.0025168195242 0.0024521481837 
0.002389665581 0.0023293286832 0.0040695414872 0.0039399898444 0.003816087483 0.0036977646252 0.0035848687601 0.0034771602845 0.0033743212987 
0.0032759999681 0.0031818626282 0.0030916323068 0.0030050948991 0.0029220769118 0.0028423915647 0.0027658132209 0.002692125775 0.0026211078314 
0.0025525834544 0.0024864155154 0.0024225236982 0.0023608312283 0.0031509723892 0.0030766834238 0.0030045282637 0.0029345205497 0.0028666405152 
0.0028008448529 0.0027370572877 0.0026751831419 0.0026151547199 0.0025569148937 0.0025004263274 0.0024456591308 0.0023925737981 0.0023411145369 
0.0022912182372 0.0022428334388 0.0021958583208 0.0021502421475 0.0021059272012 0.0020628536727 0.0032229521461 0.0031456801691 0.0030706755517 
0.0029979487281 0.0029274864691 0.0028592385021 0.0027931291593 0.0027290568124 0.0026669423188 0.0026067162309 0.0025483353808 0.002491765519 
0.0024369612617 0.0023838664971 0.0023324065517 0.0022825107325 0.0022341115296 0.0021871086486 0.0021414538135 0.0020970948063 0.0032911703502 
0.0032109808437 0.0031331908822 0.0030578105503 0.0029848197494 0.0029141761781 0.0028457976316 0.0027795745378 0.0027154202939 0.0026532534146 
0.002593022767 0.0025346851635 0.0024781932107 0.0024234852793 0.0023704892217 0.0023191171361 0.0022692973985 0.0022209231465 0.0021739484807 
0.002128322846 0.0033553366832 0.0032722985585 0.0031918015399 0.0031138426683 0.0030384002822 0.0029654260146 0.0028948328075 0.0028265114737 
0.0027603639093 0.0026963023646 0.0026342586946 0.0025741880931 0.0025160414004 0.0024597507052 0.0024052396521 0.002352415953 0.0023011951063 
0.0022514797375 0.0022032158194 0.0021563597456 0.0034164180951 0.0033305664604 0.0032474157896 0.0031669280651 0.0030890839515 0.0030138197464 
0.0029410503185 0.0028706622994 0.0028025422635 0.0027366039011 0.0026727709747 0.0026109886118 0.0025512021958 0.0024933396684 0.0024373227005 
0.0023830562466 0.0023304531114 0.0022794188504 0.0022298970473 0.0021818445343 0.0034762744376 0.003387593473 0.0033017736596 0.0032187576932 
0.0031385115197 0.0030609560204 0.0029859985132 0.0029135268379 0.0028434224567 0.0027755941785 0.0027099614522 0.0026464568575 0.0025850191872 
0.0025255725181 0.0024680366128 0.0024123149396 0.0023583179968 0.0023059811723 0.0022552098987 0.0022059761843 0.0035370347717 0.0034454279804 
0.0033568585052 0.0032712466268 0.0031885348091 0.0031086288296 0.0030314242228 0.0029568129681 0.0028846640448 0.0028148953297 0.0027474140272 
0.0026821438523 0.0026190142422 0.0025579452728 0.0024988534894 0.0024416488297 0.0023862414632 0.002332571738 0.0022805427571 0.0022301160353 
0.0036005411879 0.0035058497926 0.0034143851307 0.0033260427242 0.0032407366672 0.003158364151 0.0030788132431 0.0030019629361 0.0029276919775 
0.0028558961246 0.0027864879291 0.0027193838638 0.0026544957243 0.0025917457993 0.0025310441824 0.0024723074631 0.0024154484744 0.0023604015639 
0.0023070783029 0.0022554239957 0.0036680845627 0.0035701087203 0.0034755513082 0.0033842946789 0.0032962326738 0.0032112461892 0.0031292067743 
0.0030499951029 0.002973480432 0.0028995626026 0.0028281324279 0.0027591009683 0.002692376802 0.0026278698576 0.0025654955365 0.0025051678412 
0.0024467958477 0.0023903048303 0.0023356400954 0.0022827004294 0.0037404415701 0.0036389444809 0.0035410752129 0.0034466962305 0.0033556871804 
0.0032679097962 0.0031832304791 0.0031015142418 0.0030226292626 0.0029464675627 0.0028729042678 0.0028018499979 0.00273319518 0.0026668563925 
0.002602734171 0.0025407414381 0.0024807932634 0.0024228025109 0.00236671541 0.0023124248401 0.0038180148595 0.0037127509296 0.003611339321 
0.0035136190778 0.0034194543765 0.0033287034717 0.0032412149672 0.003156839358 0.0030754422439 0.0029969045093 0.0029210986124 0.0028479132492 
0.0027772415863 0.0027089802178 0.0026430323615 0.0025793039158 0.0025176999198 0.0024581403115 0.002400558963 0.0023448450169 0.0039009814308 
0.0037916961407 0.0036865031831 0.0035852197479 0.003487697535 0.0033937806339 0.0033033079493 0.0032161197327 0.0031320665334 0.0030510190003 
0.002972851926 0.0028974295903 0.0028246448461 0.0027543798803 0.0026865258357 0.0026209787752 0.0025576459489 0.0024964358782 0.0024372820976 
0.002380074102 0.0039893461802 0.0038757861431 0.0037665588596 0.0036614877052 0.0035603997909 0.0034631258296 0.0033694980337 0.0032793420253 
0.003192496509 0.0031088170254 0.0030281707167 0.0029504097885 0.0028754161037 0.0028030635197 0.0027332214584 0.0026657818469 0.0026006406715 
0.0025377031918 0.0024768885565 0.0024181183491 0.004082877852 0.0039647861468 0.0038512928334 0.0037422073248 0.0036373524015 0.0035365433111 
0.0034395968787 0.0033463208992 0.0032565487513 0.0031701152384 0.0030868761412 0.0030066854901 0.0029293990189 0.0028548761487 0.0027829788207 
0.0027135725714 0.0026465486363 0.002581808598 0.0025192678204 0.0024588516771 0.0041809129005 0.0040580631367 0.0039400795803 0.0038267823629 
0.0037179770822 0.0036134738783 0.0035130682558 0.0034165538897 0.0033237301545 0.0032344386475 0.0031485137253 0.003065804314 0.0029861491015 
0.0029093887127 0.002835365993 0.00276392821 0.002694959293 0.0026283520759 0.0025640206645 0.0025018887568 0.0042821476854 0.0041543468237 
0.0040316994329 0.0039140261836 0.0038011387458 0.0036928240178 0.0035888499193 0.0034889951157 0.0033930397135 0.0033008078987 0.003212127565 
0.0031268348405 0.0030447530992 0.0029657021806 0.0028895050689 0.0028159953869 0.0027450335027 0.0026765125373 0.0026103365803 0.0025464399722 
0.0043844147763 0.004251556321 0.0041241570377 0.0040020302068 0.0038849887535 0.003772800692 0.0036652124363 0.0035619768787 0.003462856168 
0.0033676565213 0.0032761898981 0.0031882796881 0.0031037351381 0.0030223594728 0.0029439619864 0.0028683507516 0.0027953790387 0.0027249243875 
0.0026568900524 0.0025912065296 0.0044848646474 0.0043469508121 0.0042148079992 0.0040882499797 0.0039670710715 0.0038510311947 0.0037398560776 
0.0036332659497 0.0035310161206 0.0034328852237 0.0033386514627 0.0032481327146 0.0031611264337 0.0030774261318 0.0029968274549 0.0029191222808 
0.002844155175 0.0027717931795 0.0027019345129 0.002634496366 0.0045805854422 0.0044377348348 0.0043009713964 0.0041700919968 0.0040448887067 
0.0039250935931 0.0038104302072 0.0037005853126 0.0035952887115 0.003494280278 0.0033973451043 0.0033042682006 0.0032148493071 0.003128862458 
0.0030461095241 0.0029663618912 0.0028894576448 0.0028152578239 0.0027436497417 0.0026745370611 0.0046694244191 0.0045218382993 0.0043806508131 
0.0042456423757 0.0041165841308 0.0039931957079 0.0038751882702 0.0037622237096 0.0036539988001 0.0035502411385 0.0034506983509 0.0033551534709 
0.0032633941045 0.0031751940318 0.0030903409442 0.0030086301029 0.0029298829599 0.0028539474194 0.0027807006308 0.0027100252575 0.0035627128001 
0.0034791688332 0.0033980206149 0.0033192547407 0.003242818268 0.0031686642074 0.003096722158 0.0030269156274 0.0029591816624 0.0028934581354 
0.0028296861214 0.0027678199461 0.0027078040288 0.0026495833558 0.0025930924306 0.002538278414 0.0024850479993 0.0024333511305 0.0023831205971 
0.0023343023645 0.0036414573248 0.0035546287556 0.0034703546226 0.0033886055394 0.0033093327454 0.0032324793462 0.0031579752449 0.0030857330996 
0.0030156809223 0.0029477478102 0.0028818737656 0.002818000751 0.0027560733813 0.0026960282448 0.0026377904736 0.002581310807 0.002526482297 
0.0024732514915 0.0024215500524 0.0023713258192 0.0037184557792 0.0036283379191 0.0035409310069 0.0034561946246 0.003374086243 0.0032945340388 
0.0032174665782 0.0031427883401 0.0030704218481 0.0030002822797 0.0029323054465 0.0028664294688 0.0028025872001 0.0027407145608 0.0026807313423 
0.0026225667517 0.0025661519251 0.0025113849116 0.0024582148104 0.0024065817689 0.0037935624789 0.0037001460379 0.0036096021195 0.0035218891436 
0.0034369454733 0.0033547019316 0.0032750736016 0.0031979606121 0.0031232786866 0.0030509369093 0.0029808590698 0.0029129778067 0.002847221024 
0.0027835173847 0.002721789673 0.0026619524003 0.0026039361571 0.0025476381325 0.0024930031706 0.0024399730804 0.0038673337335 0.0037705912543 
0.0036768967099 0.0035861931823 0.0034984061216 0.0034134569092 0.0033312587611 0.0032517000805 0.003174693708 0.0031001372163 0.0030279468693 
0.0029580509594 0.0028903710449 0.0028248284887 0.0027613437743 0.0026998264029 0.0026402063842 0.0025823738302 0.0025262769804 0.0024718556062 
0.0039408734524 0.0038407425087 0.0037438463744 0.0036500998404 0.0035594282936 0.0034717394349 0.0033869309734 0.0033048923909 0.0032255229732 
0.0031487206385 0.003074392197 0.0030024536377 0.0029328224435 0.002865417392 0.0028001511282 0.0027369338366 0.0026756782702 0.0026163162575 
0.0025587526268 0.0025029355617 0.0040155013514 0.0039118707685 0.0038116736983 0.0037148044819 0.0036211686626 0.0035306671875 0.0034431794403 
0.0033586015585 0.0032768039431 0.0031976974283 0.0031211753509 0.003047147026 0.0029755208018 0.0029062117436 0.0028391252779 0.0027741763232 
0.0027112706233 0.0026503373536 0.0025912848952 0.0025340537524 0.0040924662656 0.0039851864305 0.0038815475281 0.0037814231638 0.0036847066703 
0.0035912807787 0.0035010168231 0.0034138004632 0.0033294995609 0.003248006745 0.0031692218992 0.0030930368435 0.0030193548253 0.0029480835147 
0.0028791292642 0.0028123983412 0.0027477981416 0.0026852601204 0.0026246791228 0.0025659963073 0.0041727476669 0.0040616369688 0.003954380364 
0.0038508398147 0.0037508945227 0.0036544054661 0.0035612430085 0.0034712731232 0.0033843635207 0.0033003953315 0.0032192533659 0.0031408302447 
0.0030650170198 0.0029917179946 0.002920833397 0.0028522644844 0.0027859163439 0.0027217037708 0.0026595613174 0.0025993790374 0.0042570176433 
0.0041418573771 0.0040307868405 0.0039236479059 0.0038203021832 0.0037206015016 0.0036243936707 0.003531542623 0.0034419007885 0.0033553511587 
0.0032717571644 0.0031910073194 0.0031129808795 0.0030375803955 0.0029646926853 0.0028942207471 0.0028260647047 0.0027601323492 0.0026963559209 
0.0026346185199 0.0043456552146 0.0042262250363 0.0041111341813 0.0040001952775 0.0038932687051 0.0037901853126 0.003690785096 0.003594911294 
0.0035024147333 0.0034131639353 0.0033270146197 0.0032438416606 0.0031635179212 0.003085933434 0.0030109734876 0.002938529666 0.0028684978532 
0.002800783286 0.0027353092006 0.0026719559683 0.0044388143798 0.0043148833363 0.004195552281 0.0040806220857 0.0039699269334 0.0038632912838 
0.0037605388689 0.0036615058658 0.003566023733 0.0034739489765 0.0033851397596 0.0032994475179 0.0032167410997 0.0031368953674 0.0030597866138 
0.0029852994646 0.002913323198 0.002843754665 0.0027765184344 0.0027114907663 0.004536421196 0.0044077569139 0.0042839706853 0.0041648422643 
0.0040501982662 0.003939842119 0.0038335897561 0.0037312567667 0.0036326662997 0.0035376614589 0.003446087069 0.0033577788043 0.0032726044436 
0.0031904169691 0.0031110897372 0.0030344905303 0.0029605024576 0.0028890190158 0.0028199421107 0.0027531808419 0.0046381410261 0.0045045272563 
0.004376072477 0.0042525655431 0.0041337956745 0.0040195646451 0.0039096640943 0.0038039027621 0.0037020866467 0.003604044119 0.0035096091393 
0.0034186002703 0.0033308767105 0.0032462858749 0.0031646703832 0.003085895889 0.0030098344681 0.0029363702902 0.0028654038864 0.0027968457949 
0.0047432914194 0.0046045307554 0.0044712325227 0.0043431712051 0.0042201232072 0.0041018764038 0.0039882114833 0.0038789118396 0.003773769973 
0.0036726030777 0.0035752193275 0.0034814464128 0.0033911009411 0.0033040352627 0.0032200765809 0.0031390726271 0.0030608863153 0.0029853956128 
0.0029124911883 0.0028420823936 0.0048507677502 0.0047067008554 0.0045684068311 0.0044356597471 0.0043082206371 0.0041858585222 0.0040683313697 
0.003955411624 0.0038468683176 0.0037425046679 0.0036421125607 0.0035455132122 0.0034525104914 0.003362924088 0.0032765785394 0.00319330287 
0.0031129553705 0.0030353979444 0.0029605196313 0.0028882237942 0.0049589890711 0.0048095175362 0.0046661450006 0.0045286272413 0.004396730444 
0.0042701913489 0.0041487558019 0.0040321687834 0.003920190005 0.0038125971211 0.0037091682352 0.0036097106199 0.0035140097945 0.0034218788449 
0.0033331225741 0.003247556406 0.0031650278452 0.003085392209 0.0030085253913 0.0029343263819 0.0050660967156 0.0049111830563 0.0047627090215 
0.0046204143063 0.0044840433841 0.0043533242865 0.0042279790918 0.0041077263002 0.0039923274404 0.0038815033968 0.0037750398141 0.0036727182646 
0.0035743197852 0.0034796386677 0.0033884680801 0.0033006139331 0.0032159117383 0.0031342130876 0.0030553761483 0.0029792951137 0.0051703358039 
0.0050100170216 0.0048564849201 0.004709452142 0.0045686496285 0.0044337918256 0.0043045751473 0.0041807004957 0.0040618922191 0.0039478738449 
0.0038384023771 0.0037332443352 0.0036321696311 0.0035349578728 0.0034414098101 0.0033512980483 0.0032644560737 0.003180729162 0.00309996778 
0.0030220522303 0.0052704369388 0.0051047964709 0.0049462914389 0.0047946113306 0.0046494642084 0.0045105360708 0.0043775231617 0.0042500923313 
0.0041279435149 0.0040107862039 0.0038983540236 0.0037904041111 0.0036866916705 0.0035869909076 0.0034910850866 0.0033987632754 0.0033098379333 
0.0032241409388 0.0031415293389 0.0030618450038 0.0039730395053 0.003880299653 0.0037902157748 0.0037027462298 0.0036178286173 0.0035354041644 
0.0034554018695 0.0033777478249 0.0033023817349 0.0032292314599 0.0031582345319 0.0030893301234 0.0030224535296 0.0029575443787 0.0028945345052 
0.0028333746747 0.0027739654999 0.0027162552477 0.0026601804466 0.0026056814056 0.0040592347265 0.0039628965202 0.0038693825166 0.0037786466712 
0.0036906198861 0.0036052329873 0.0035224137068 0.0034420769882 0.003364155819 0.0032885697188 0.0032152512246 0.0031441308358 0.003075143433 
0.0030082162273 0.0029432776597 0.0028802740827 0.0028191033555 0.0027597077329 0.0027020177484 0.0026459757138 0.0041450083806 0.0040450110105 
0.0039480188679 0.003853969772 0.0037627922505 0.0036744050876 0.0035887325242 0.0035056825048 0.0034251765911 0.0033471287433 0.0032714631021 
0.0031981051482 0.0031269807729 0.0030580165463 0.0029911294502 0.002926250754 0.0028633145671 0.0028022158792 0.0027428963465 0.0026852998011 
0.0042302826578 0.0041265720065 0.0040260477839 0.0039286414946 0.0038342702669 0.0037428492623 0.0036542887558 0.0035684922206 0.0034853735995 
0.0034048357469 0.0033267988183 0.0032511788357 0.0031778962357 0.0031068690279 0.0030380191576 0.0029712610602 0.0029065275748 0.002843711817 
0.0027827551306 0.0027235941983 0.0043154016693 0.0042079056357 0.0041037870037 0.004002969239 0.0039053529724 0.003810851147 0.0037193609581 
0.0036307771282 0.003545007508 0.0034619473806 0.0033815054701 0.0033035937262 0.0032281240705 0.0031550108601 0.0030841701271 0.003015508118 
0.0029489599868 0.0028844120466 0.0028218044158 0.0027610693669 0.0044010464563 0.0042896627622 0.0041818615907 0.0040775561562 0.0039766300896 
0.0038789814969 0.0037845005585 0.0036930742621 0.003604600824 0.0035189700222 0.0034360788727 0.003355833134 0.0032781398584 0.0032029041466 
0.0031300380384 0.003059447714 0.0029910438329 0.0029247535339 0.0028604756971 0.0027981495642 0.0044880495497 0.0043726546209 0.00426107166 
0.0041531658057 0.0040488357144 0.0039479529234 0.0038504023676 0.003756059107 0.0036648118372 0.0035765452123 0.0034911471899 0.0034085141187 
0.0033285438382 0.0032511414242 0.003176206271 0.003103646773 0.0030333665628 0.0029652895982 0.0028993120316 0.0028353701053 0.0045772623894 
0.004457703351 0.0043421829313 0.0042305540555 0.0041226946319 0.0040184737106 0.0039177532799 0.0038203985391 0.0037262909938 0.0036353077921 
0.003547329172 0.0034622409521 0.0033799355682 0.003300306534 0.0032232534277 0.0031486777613 0.0030764745217 0.0030065725401 0.0029388568408 
0.0028732609257 0.0046693899037 0.0045454898441 0.0044258667272 0.0043103595001 0.0041988331232 0.0040911342765 0.0039871217331 0.0038866542728 
0.0037895897784 0.0036957948777 0.0036051520568 0.0035175305819 0.0034328138668 0.0033508965489 0.0032716647532 0.0031950130871 0.0031208396247 
0.003049048711 0.0029795623517 0.0029122659068 0.0047649472416 0.0046365064779 0.0045125929296 0.0043930392928 0.0042776875603 0.0041663758029 
0.0040589360124 0.0039552275886 0.0038550925114 0.0037583895969 0.0036649859935 0.003574748786 0.0034875489976 0.0034032687326 0.0033217907871 
0.0032430055399 0.0031668020176 0.0030930798373 0.0030217568638 0.0029527130412 0.004864244759 0.0047310532906 0.0046026582897 0.0044788733688 
0.0043595290055 0.0042444421991 0.004133439199 0.0040263610674 0.0039230358677 0.0038233244061 0.003727064674 0.0036341200092 0.0035443529688 
0.0034576382267 0.0033738473243 0.0032928616748 0.0032145661674 0.0031388569455 0.0030656405007 0.0029947973003 0.0049673842017 0.0048292269807 
0.0046961550129 0.0045679557453 0.0044444459595 0.0043254323118 0.0042107260929 0.0041001447257 0.0039935125544 0.0038906760419 0.0037914616781 
0.0036957244005 0.003603311816 0.003514083018 0.0034279102868 0.0033446599982 0.0032642102525 0.0031864518618 0.0031112887924 0.0030385856229 
0.005074257507 0.0049309200897 0.0047929707074 0.0046601777546 0.0045323390073 0.0044092446587 0.0042906919458 0.0041764885906 0.0040664359882 
0.0039603672794 0.0038581103413 0.0037594879725 0.0036643486693 0.0035725383503 0.003483914374 0.0033983363444 0.0033156743196 0.0032358078464 
0.0031586272067 0.0030840281251 0.0051845296527 0.0050358116205 0.0048927980194 0.004755237013 0.0046229118914 0.0044955947766 0.0043730646265 
0.0042551174468 0.0041415420592 0.0040321501688 0.0039267547573 0.0038251703226 0.0037272334675 0.0036327787287 0.0035416429523 0.0034536799274 
0.0033687495524 0.0032867219048 0.0032074838066 0.0031309264359 0.005297591344 0.0051433132278 0.0049950658013 0.0048525904671 0.0047156381931 
0.0045839749625 0.0044573595236 0.0043355615884 0.0042183730881 0.0041055739716 0.0039969696559 0.0038923558736 0.003791557148 0.0036943941216 
0.0036006965779 0.00351029811 0.0034230553695 0.0033388295446 0.0032574929816 0.0031789349559 0.0054125689937 0.0052525796819 0.0050989644286 
0.0049514473449 0.004809761078 0.0046736496924 0.0045428612308 0.0044171405008 0.0042962601415 0.004179990555 0.0040681120261 0.0039604234361 
0.0038567153164 0.0037568009894 0.0036604985977 0.0035676315571 0.0034780427485 0.0033915802973 0.0033081141253 0.0032275312764 0.005528324007 
0.0053625233219 0.0052034379004 0.0050507926117 0.0049042958405 0.0047636721062 0.0046286484655 0.0044989568468 0.0043743395634 0.0042545562315 
0.0041393699554 0.004028566654 0.0039219165056 0.0038192268339 0.0037202948258 0.0036249333117 0.0035329776141 0.0034442681465 0.0033586605216 
0.0032760411415 0.0056436141459 0.0054719270475 0.0053073288044 0.0051495063505 0.004998165855 0.0048529993401 0.0047137140364 0.0045800228446 
0.004451664371 0.0043283533513 0.0042098467883 0.0040959084188 0.0039863068921 0.0038808291212 0.0037792574968 0.00368139983 0.0035870789731 
0.0034961225547 0.0034083780693 0.0033237156803 0.0057573247902 0.0055797347807 0.0054096063729 0.0052466029111 0.0050904094722 0.0049406989213 
0.0047971591187 0.0046594734571 0.0045273578187 0.0044005192692 0.0042786916035 0.0041616276723 0.0040490773298 0.0039408251443 0.0038366273241 
0.0037362842372 0.0036396115252 0.0035464295176 0.0034565740174 0.0033699053085 0.0058686608502 0.0056851742002 0.0055095316538 0.0053413716884 
0.0051803489865 0.0050261144308 0.0048783397636 0.0047366804568 0.0046008375219 0.0044704883662 0.0043453608647 0.0042251855853 0.0041097038377 
0.003998671713 0.0038918667826 0.0037890647659 0.0036900703143 0.0035947038605 0.0035027751852 0.0034141385284 0.0043806558101 0.0042788427936 
0.0041799345777 0.0040838726501 0.0039905884153 0.0039000059136 0.0038120615073 0.0037266732059 0.0036437776521 0.0035632968607 0.0034851646552 
0.0034093098282 0.0033356639115 0.0032641588214 0.0031947252602 0.0031273059314 0.0030618054794 0.0029981691704 0.0029363295669 0.0028762244063 
0.0044746149338 0.0043688831491 0.0042662378772 0.0041666194006 0.0040699425549 0.0039761352614 0.0038851133724 0.003796792999 0.0037111037359 
0.0036279610041 0.0035472869658 0.0034690093015 0.0033930496412 0.0033193338551 0.0032477881136 0.0031783521001 0.0031109254151 0.0030454435416 
0.0029818414009 0.0029200508017 0.0045690577752 0.0044593136239 0.0043528492327 0.0042495945815 0.0041494579936 0.0040523555525 0.0039581967108 
0.0038668915506 0.0037783572579 0.0036925036942 0.0036092468884 0.0035285022185 0.0034501920037 0.0033742316566 0.0033005423389 0.0032290444649 
0.0031596737099 0.0030923219926 0.0030269319284 0.0029634355463 0.0046639507678 0.0045500971645 0.0044397272843 0.0043327587798 0.0042290916189 
0.0041286256734 0.0040312713002 0.003936923767 0.0038454944772 0.0037568812297 0.0036709956189 0.0035877457467 0.0035070439947 0.0034288024333 
0.0033529372448 0.0032793607751 0.0032080073447 0.0031387613103 0.0030715609969 0.0030063363867 0.0047595049592 0.0046414399781 0.0045270733375 
0.0044163004656 0.0043090200655 0.0042051262782 0.004104507408 0.004007056335 0.0039126715683 0.0038212473309 0.0037326858033 0.0036468844791 
0.0035637501081 0.0034831896783 0.0034051107427 0.00332942407 0.0032560534374 0.0031848875037 0.0031158536979 0.0030488833242 0.0048561541566 
0.0047337525871 0.0046152741705 0.0045006049898 0.0043896218828 0.0042822085061 0.0041782520508 0.0040776223956 0.0039802206111 0.0038859247861 
0.0037946267454 0.0037062206751 0.0036206063109 0.0035376805228 0.0034573485768 0.0033795156516 0.0033040802514 0.0032309727249 0.0031600801561 
0.0030913356904 0.0049544433112 0.0048275668792 0.004704846972 0.0045861595351 0.0044713681579 0.0043603396729 0.0042529507222 0.0041490596736 
0.004048559994 0.0039513197661 0.0038572225491 0.0037661512183 0.0036779987479 0.0035926562045 0.0035100237646 0.0034299967638 0.003352470925 
0.0032773740632 0.0032045871069 0.0031340370963 0.005054936117 0.0049234226776 0.0047963209595 0.0046734728187 0.0045547471075 0.0044399918624 
0.0043290626188 0.0042218158707 0.004118125199 0.0040178591406 0.0039208851933 0.0038270788014 0.0037363252477 0.0036485096283 0.0035635192789 
0.0034812476017 0.0034015876933 0.0033244599143 0.0032497352576 0.0031773449617 0.005158133778 0.0050218035935 0.0048901493113 0.004762996479 
0.0046401917522 0.0045215738401 0.0044069888937 0.0042962773762 0.0041893044312 0.0040859153304 0.0039859819086 0.0038893648016 0.0037959384373 
0.0037055828892 0.0036181753697 0.0035336051252 0.0034517590619 0.0033725506393 0.0032958464604 0.003221569465 0.0052644065389 0.0051230676599 
0.0049866813281 0.0048550565845 0.0047280265469 0.0046054078885 0.0044870378297 0.0043727439384 0.0042623754431 0.004155770615 0.0040527874801 
0.0039532752514 0.0038571006106 0.0037641341146 0.0036742492282 0.0035873214733 0.0035032321216 0.003421874903 0.0033431542893 0.0032669446024 
0.0053739757066 0.0052274267221 0.0050861164986 0.0049498481878 0.0048184324451 0.0046916716873 0.0045693803734 0.0044513803182 0.0043375050433 
0.004227587029 0.004121458645 0.0040189672966 0.0039199698297 0.0038243215195 0.0037318892835 0.0036425416587 0.0035561523033 0.003472608144 
0.0033918100965 0.0033136185621 0.0054868987866 0.0053349350948 0.0051885210237 0.0050474317073 0.0049114674203 0.0047804150195 0.0046540738965 
0.0045322446563 0.0044147481819 0.0043014096156 0.0041920458241 0.0040864920358 0.0039845908749 0.0038861906612 0.0037911464907 0.0036993143958 
0.0036105699793 0.0035247851571 0.0034418523267 0.0033616284522 0.0056030553147 0.0054454684929 0.0052937662446 0.0051476898367 0.0050070197554 
0.0048715339679 0.0047410070995 0.0046152304607 0.0044940115009 0.0043771538889 0.004264460926 0.0041557623659 0.0040508821481 0.0039496643462 