# vtk DataFile Version 5.1
vtk output
ASCII
DATASET STRUCTURED_POINTS
DIMENSIONS 20 20 20
SPACING 0.005 0.005 0.005
ORIGIN 0.2189 -0.051172 0.02882
POINT_DATA 8000
FIELD FieldData 3
potential 1 8000 double
0.51760858356 0.51759154646 0.51755501899 0.51748930489 0.51740182512 0.5173154955 0.51726110459 0.51725903521 0.51730586305 
0.51737286978 0.5174237841 0.51743532592 0.51740211405 0.51732246179 0.51718970629 0.51699305362 0.51672080319 0.51637028928 
0.51596200753 0.51554495435 0.47814373498 0.47809126414 0.47801310828 0.47790910563 0.47779567883 0.4776998853 0.47764965654 
0.47765816605 0.47771312024 0.47778304917 0.47783542883 0.47785208306 0.47783029988 0.47777061575 0.47766270572 0.47748992668 
0.47723473542 0.47689497114 0.47649243511 0.47607723887 0.43709530471 0.43700053828 0.43687420051 0.43672815225 0.43658883843 
0.43648472463 0.43643768681 0.43645061803 0.43650320871 0.4365643958 0.43660768729 0.43662389221 0.43661464627 0.4365808854 
0.43650916802 0.43637594635 0.43615963205 0.43585513868 0.43548598965 0.43510126683 0.39672736463 0.39660132984 0.39643857114 
0.3962629998 0.39610647544 0.39599762247 0.39595047752 0.39596036167 0.39600154227 0.39604523895 0.39607385328 0.39608537325 
0.39608649843 0.39607510314 0.39603769418 0.39594686732 0.39577801471 0.39552427317 0.3952072863 0.39487463724 0.35917884539 
0.35904486248 0.35887336793 0.3586920759 0.35853416307 0.35842592414 0.35837669426 0.35837637173 0.35839956254 0.35842209402 
0.35843385137 0.35843922279 0.35844368726 0.35844509962 0.3584287852 0.3583689202 0.35824377067 0.35804496897 0.35779139448 
0.35752468198 0.32617734576 0.32605828391 0.32590630161 0.32574381322 0.32560065884 0.32550029826 0.32544759265 0.3254327629 
0.32543561439 0.3254381934 0.32543636099 0.32543415763 0.32543583223 0.32543671191 0.32542422853 0.32538024108 0.32528724666 
0.32514046691 0.32495410726 0.32475893368 0.2988369437 0.29874506706 0.29862639429 0.29849799325 0.29838041372 0.29829140815 
0.29823640744 0.29820845696 0.29819371413 0.29818140198 0.29816869858 0.29815903698 0.29815333871 0.29814572197 0.2981269456 
0.29808649471 0.29801574208 0.29791382292 0.29778857659 0.29766096753 0.27762887425 0.27756272612 0.27747829877 0.2773833108 
0.27729212161 0.27721687298 0.27716191268 0.27712464243 0.27709714744 0.2770752131 0.27705579742 0.27704014258 0.27702647296 
0.27700896996 0.27698262575 0.27694308779 0.27688926573 0.2768221339 0.27674555108 0.27667161027 0.2625416194 0.26249387159 
0.26243414762 0.2623655724 0.26229511337 0.26223115008 0.26217860067 0.26213626983 0.26210256804 0.26207402415 0.26205009125 
0.26203002611 0.26201009173 0.26198649146 0.2619566565 0.26192078081 0.26188056851 0.26183927341 0.26179821784 0.26176297473 
0.25333218922 0.25329431433 0.2532489489 0.25319659919 0.25313987599 0.25308405133 0.25303361869 0.25298910218 0.25295163548 
0.25291901246 0.2528928326 0.25286987852 0.25284706865 0.25282188336 0.25279313112 0.25276353136 0.25273599059 0.25271325402 
0.25269746132 0.25268967709 0.24974736946 0.2497131792 0.2496744172 0.24962952524 0.24957913379 0.24952665146 0.24947615811 
0.24942992734 0.2493887471 0.24935434108 0.24932570821 0.24930130471 0.24927930437 0.24925676643 0.24923334803 0.24921143523 
0.24919502202 0.24918740871 0.24918986021 0.24920316087 0.25166193142 0.25162766195 0.25158937978 0.25154456169 0.25149380286 
0.25143963209 0.25138574612 0.25133441205 0.25128871862 0.25124958013 0.25121806102 0.25119502274 0.25117658898 0.2511604797 
0.25114528522 0.25113266935 0.25112678569 0.25113287577 0.25115195666 0.25118356128 0.25913118457 0.25909311237 0.25905077823 
0.25900011618 0.25894278009 0.25888123854 0.25881914327 0.25875812021 0.25870127152 0.258653651 0.25861760421 0.25859523669 
0.25858517257 0.25858076921 0.2585777314 0.25857675743 0.25858289916 0.25860208365 0.25863681426 0.25868712178 0.27237413294 
0.27232844033 0.27227560935 0.27221389006 0.27214443469 0.27207080162 0.27199394072 0.27191553382 0.27184002932 0.27177538868 
0.27173027292 0.27170875642 0.27170957358 0.27172354649 0.27173965797 0.27175577764 0.27177595701 0.27180771852 0.27185757962 
0.27192952705 0.29167933982 0.29162213208 0.29155450133 0.29147665868 0.29139080003 0.29129940373 0.29120120509 0.29109583817 
0.29098989945 0.29089754061 0.29083527867 0.29081209556 0.29082649673 0.29086421239 0.29090918947 0.29094892466 0.29098552556 
0.29102956418 0.2910933014 0.29118724112 0.31722463833 0.31715643509 0.31707274284 0.3169783745 0.31687539416 0.31676248716 
0.31663495622 0.31649109893 0.31634088699 0.31620752758 0.3161174002 0.31608590995 0.31611238995 0.31617760461 0.31625477127 
0.31632198712 0.3163763302 0.31643011448 0.31650496067 0.31662150842 0.34882471752 0.3487560865 0.34866633062 0.34856248759 
0.34844496589 0.34830816881 0.34814333543 0.34794965884 0.34774328945 0.34755861478 0.34743017365 0.34738061551 0.34740919216 
0.34749270914 0.34759459047 0.34768437434 0.34775337749 0.34781460759 0.34789668862 0.3480334085 0.38571028393 0.38566098525 
0.38558552326 0.38548766044 0.38536312755 0.38520156896 0.3849938517 0.38474338628 0.3844761292 0.38423473589 0.3840625358 
0.38398322116 0.38399637451 0.38407632751 0.38418274911 0.38427952555 0.38435299074 0.38441691973 0.3845046702 0.38465820811 
0.4264550014 0.42644768607 0.42640827656 0.4263328781 0.42621047285 0.42602811385 0.42577860289 0.42547479899 0.42515209185 
0.42486006782 0.42464327873 0.42452592144 0.42450648174 0.42455891978 0.42464369416 0.42472497773 0.42478919842 0.42484918677 
0.42493940376 0.42510143465 0.46911063686 0.46915600151 0.46916475249 0.46912218628 0.46901008364 0.46881492192 0.46853542612 
0.4681927808 0.4678320416 0.46750550962 0.46725611194 0.46710236026 0.46704209721 0.46705219136 0.46709740608 0.4671471349 
0.46718939855 0.4672377959 0.46732227062 0.46748035857 0.49623231676 0.49619991285 0.49615581304 0.49609797449 0.49603286388 
0.49597207335 0.49592865476 0.49591162401 0.49591654529 0.49593059365 0.49593738951 0.49592301258 0.49588003284 0.4958039931 
0.49568863133 0.49552932994 0.49532142581 0.49506858756 0.49478608734 0.49450181118 0.46436793681 0.46431565327 0.46425005892 
0.46417248987 0.46409334573 0.46402557535 0.46398274955 0.46396909432 0.46397865975 0.46399651707 0.46400690065 0.46399800115 
0.46396312542 0.46389834273 0.46379686813 0.46365031419 0.46345263732 0.46320695702 0.46292952201 0.46264823694 0.43131144847 
0.43123820718 0.43114929557 0.4310512951 0.43095795587 0.43088412857 0.43083940859 0.43082601494 0.43083477517 0.43085037947 
0.43085960449 0.43085274457 0.43082637129 0.43077621189 0.43069428764 0.43056978272 0.43039491725 0.43017096001 0.42991526332 
0.42965456993 0.39870655652 0.39861825833 0.39851191675 0.3983995053 0.3982967059 0.39821764701 0.39817061997 0.39815379808 
0.39815705598 0.39816594037 0.39816954407 0.39816290863 0.39814317622 0.39810644743 0.39804444404 0.39794546306 0.39779988849 
0.39760820449 0.39738632999 0.39715972556 0.36812176908 0.36802821867 0.36791717845 0.36780165085 0.36769619061 0.36761633756 
0.36756636042 0.36754377748 0.36753838334 0.36753738194 0.36753393726 0.36752474987 0.36750860045 0.3674813018 0.36743507331 
0.36735824751 0.36724250791 0.36708706701 0.36690576066 0.36672133108 0.34087002551 0.34078221728 0.34067935286 0.34057113439 
0.34047213403 0.34039493136 0.34034321 0.34031398128 0.34029838587 0.34028731476 0.34027623997 0.34026309036 0.34024720883 
0.34022394137 0.34018576734 0.34012604127 0.34003538015 0.33991609987 0.33977781306 0.33963829213 0.31789040969 0.31781515058 
0.31772721227 0.31763420525 0.31754691784 0.31747572633 0.31742343957 0.31738774913 0.31736368333 0.3173444109 0.31732683864 
0.31730921645 0.31729063447 0.3172667149 0.31723281918 0.31718338362 0.3171137293 0.31702661107 0.31692761275 0.31683041825 
0.29972248598 0.29966110669 0.29958977373 0.29951348154 0.29944000175 0.29937590565 0.29932468187 0.29928474593 0.29925389018 
0.29922843281 0.2992052757 0.29918377611 0.29916235762 0.29913683565 0.29910485881 0.29906335418 0.2990108669 0.29894963182 
0.29888423446 0.29882309993 0.28658209169 0.28653148731 0.28647425583 0.28641234617 0.28635005672 0.28629236455 0.28624255196 
0.28620038828 0.28616538902 0.28613478494 0.28610810561 0.28608409744 0.28605958329 0.28603375858 0.28600402333 0.28596973437 
0.28593169656 0.28589191523 0.28585331907 0.28582088935 0.27848605459 0.27844247384 0.27839408233 0.27834186135 0.27828731629 
0.27823432486 0.27818511876 0.27814120148 0.27810246658 0.27806867621 0.27803948701 0.27801352589 0.27798902119 0.27796387408 
0.27793778261 0.27791154882 0.27788584568 0.27786280249 0.2778456583 0.27783596844 0.27537998276 0.27533919398 0.27529548364 
0.27524758753 0.27519677301 0.27514505386 0.27509490845 0.27504820788 0.27500646952 0.2749697787 0.27493809222 0.27491135098 
0.27488804164 0.27486627141 0.27484583682 0.27482782101 0.27481382396 0.27480513471 0.27480490156 0.27481455814 0.27722991508 
0.27718928078 0.27714539764 0.27709749034 0.27704570768 0.27699165843 0.27693794305 0.27688645219 0.27683962309 0.27679860163 
0.27676398279 0.27673753342 0.27671689208 0.27670061927 0.27668747605 0.27667880786 0.27667571748 0.2766810995 0.27669681954 
0.27672374251 0.28406019986 0.28401713884 0.28397058486 0.28391806302 0.28386135066 0.28380103339 0.28373982326 0.28367973175 
0.28362346854 0.28357514297 0.2835368747 0.28351023547 0.28349408948 0.28348557487 0.28348221772 0.28348412477 0.28349254867 
0.28351131422 0.28354235072 0.28358763583 0.2959411023 0.29589376211 0.29584069623 0.29578078551 0.29571484416 0.29564472057 
0.29557147651 0.29549773763 0.29542763791 0.29536675818 0.29532145221 0.29529349638 0.29528274821 0.29528425243 0.2952935229 
0.29530875621 0.29533010212 0.29536150878 0.2954080298 0.29547279039 0.31292225904 0.31286984432 0.31280879629 0.31273931227 
0.31266197131 0.31257757805 0.31248778684 0.31239451125 0.31230392452 0.31222464214 0.3121669061 0.31213543869 0.31212953627 
0.31214251806 0.31216729219 0.31219730504 0.31223194705 0.31227646965 0.31233765498 0.31242287955 0.33492299994 0.33486702481 
0.33479990168 0.33472145929 0.33463172448 0.334531135 0.33441960837 0.33430037279 0.33418185685 0.33407773626 0.33400149067 
0.33396117175 0.33395767884 0.33398196114 0.33402126376 0.33406587519 0.33411279388 0.33416832423 0.33424317407 0.33434907766 
0.36159631778 0.36154342932 0.36147511864 0.36139165226 0.3612917066 0.36117420995 0.36103771446 0.36088774732 0.36073547334 
0.36059990485 0.36049972944 0.36044530672 0.36043809276 0.36046710885 0.36051566736 0.36057018146 0.36062598991 0.36068972983 
0.36077583786 0.36089939034 0.39222436042 0.39218363654 0.39212396843 0.39204291719 0.39193730831 0.3918036027 0.39164144521 
0.39145842584 0.39127099699 0.3911022227 0.39097408079 0.39089966174 0.39088043551 0.39090408198 0.39095173619 0.39100783567 
0.39106625513 0.39113382048 0.39122667973 0.39136335513 0.42569051288 0.42567190065 0.425630097 0.42555987297 0.42545426659 
0.42530898914 0.42512457104 0.42491237514 0.42469331749 0.424494722 0.42433931191 0.42424222915 0.42420314284 0.42421034681 
0.42424568258 0.42429265485 0.42434543764 0.42441095843 0.42450431286 0.42464758556 0.46056264591 0.46056935137 0.46055119306 
0.46049709513 0.46039702647 0.46024635014 0.46004778539 0.4598164722 0.4595768856 0.45935735764 0.45918264752 0.45906474913 
0.45900330078 0.45898855551 0.4590029449 0.45903291184 0.45907301798 0.45913021872 0.45921884602 0.45935828793 0.47762190683 
0.47758969877 0.47754868065 0.47749974117 0.47744776578 0.47739870038 0.47735886353 0.47733183698 0.47731484242 0.47730192162 
0.4772839397 0.47725307787 0.47720280192 0.47712936622 0.47702857127 0.47689783672 0.47673553261 0.47654699225 0.47634248579 
0.47613796668 0.45181470571 0.4517702582 0.45171720507 0.45165751713 0.45159765038 0.4515442744 0.4515041605 0.45147870643 
0.45146458507 0.4514548869 0.45144043945 0.4514139953 0.45136987242 0.45130358448 0.45121091061 0.45108733185 0.45093232474 
0.45074877049 0.45054901065 0.45034835662 0.42507856507 0.42502217871 0.42495680088 0.42488656741 0.42481862964 0.42476129157 
0.42471901563 0.42469297666 0.42467898319 0.42466955004 0.42465624494 0.42463277597 0.42459462076 0.42453752162 0.42445638731 
0.42434634217 0.42420565703 0.42403669349 0.42385117472 0.42366554857 0.39864254077 0.3985775826 0.39850308062 0.39842509481 
0.39835173995 0.39829019796 0.39824584465 0.39821761246 0.39820137764 0.39818922065 0.39817460197 0.39815282891 0.39811997289 
0.39807170617 0.39800366952 0.39790988402 0.39778812385 0.39764027263 0.39747763623 0.39731457936 0.37368930924 0.37362116596 
0.37354335943 0.37346283357 0.37338739012 0.37332481102 0.3732779272 0.37324659337 0.37322569492 0.37320955982 0.37319250054 
0.37317095167 0.37314145248 0.37310063186 0.3730438618 0.37296661151 0.37286487862 0.37274206692 0.37260650418 0.37247141391 
0.35124306208 0.35117653449 0.35110161294 0.35102423108 0.35095107354 0.35088937521 0.35084135794 0.35080612732 0.35078090419 
0.35075974225 0.35073883624 0.3507160853 0.35068850047 0.35065295866 0.35060529854 0.35054220005 0.35045995078 0.35036218687 
0.35025473072 0.35014927348 0.33209198886 0.33203131216 0.33196330551 0.33189218529 0.33182461826 0.33176536197 0.33171748527 
0.33167947953 0.33164961366 0.33162383893 0.33160013592 0.33157554925 0.33154808489 0.33151557594 0.3314744962 0.33142256089 
0.33135790611 0.33128313608 0.33120303265 0.3311258312 0.31676738341 0.31671374727 0.31665374627 0.31659125466 0.31653022762 
0.31647474191 0.31642725164 0.31638714716 0.3163535867 0.31632447646 0.31629750067 0.31627098377 0.31624349153 0.31621303378 
0.3161772649 0.31613467441 0.31608526977 0.31603084914 0.31597477684 0.31592294256 0.30557469428 0.30552660635 0.3054741993 
0.3054193172 0.3053643354 0.30531258416 0.30526489634 0.30522366173 0.30518705158 0.30515495734 0.30512571792 0.30509846717 
0.30507080324 0.30504227314 0.30501115639 0.3049770847 0.30494111944 0.30490366477 0.30486831021 0.3048385354 0.298657581 
0.29861384445 0.29856673826 0.29851702771 0.29846621999 0.29841642839 0.29836918186 0.29832587476 0.29828698458 0.29825219834 
0.29822101235 0.29819244309 0.29816589865 0.29813966249 0.29811401189 0.29808833308 0.29806390144 0.29804110716 0.2980233035 
0.29801215947 0.29606962806 0.2960276965 0.29598296369 0.29593584931 0.29588654717 0.29583650096 0.29578811449 0.29574242003 
0.29570081287 0.29566301713 0.29562986547 0.29560145427 0.29557622341 0.29555387141 0.2955337092 0.29551611815 0.29550222291 
0.29549281513 0.29549030942 0.29549571266 0.29782747881 0.29778596298 0.2977409605 0.29769303958 0.29764276707 0.29759051225 
0.29753885867 0.29748881571 0.29744259251 0.29740127694 0.29736611765 0.29733708411 0.297314022 0.29729613697 0.29728251487 
0.2972733464 0.29727042083 0.29727339959 0.29728505776 0.29730632038 0.30393890395 0.30389572716 0.3038483407 0.30379744912 
0.30374288668 0.3036859704 0.30362766896 0.30357095286 0.30351764692 0.30347062229 0.30343213641 0.30340287179 0.30338212945 
0.30336955446 0.30336331832 0.30336346739 0.30337055164 0.30338595146 0.30341179836 0.30344967916 0.31438998714 0.31434448857 
0.31429392705 0.31423735704 0.31417627567 0.31411104552 0.31404407636 0.31397716794 0.31391372004 0.31385807242 0.31381325525 
0.3137828336 0.31376466698 0.31375747306 0.31376018682 0.31377003797 0.3137876122 0.31381506337 0.31385483155 0.31390937251 
0.32910862712 0.32906013545 0.32900486045 0.32894249016 0.32887360377 0.32879858978 0.32871892969 0.32863847771 0.32856112058 
0.3284928574 0.32843977468 0.32840432625 0.32838835932 0.32838704516 0.32839812845 0.32841767036 0.32844564383 0.32848458787 
0.3285377815 0.32860946484 0.34789612881 0.34784647446 0.34778879573 0.34772072908 0.34764327451 0.34755685715 0.34746271199 
0.34736502084 0.34726978615 0.34718542905 0.34712016252 0.3470779221 0.34706023317 0.34706359496 0.34708146416 0.34710930885 
0.34714610782 0.34719503945 0.34726058705 0.34734895394 0.37036019747 0.37031278824 0.37025483558 0.3701845081 0.37009970989 
0.37000182973 0.36989159931 0.36977440795 0.36965853065 0.36955502945 0.36947435237 0.36942165411 0.36939960752 0.36940280016 
0.36942436787 0.36945761055 0.36950074213 0.36955643011 0.3696321 0.36973456317 0.39586093635 0.39582128916 0.39576797018 
0.39569829753 0.39560963252 0.39550131798 0.39537559974 0.3952390347 0.39510236462 0.39497890289 0.39488048574 0.39481491103 
0.39478408482 0.39478272092 0.39480220711 0.3948356008 0.39488050064 0.39493992204 0.39502171307 0.39513402635 0.42350961986 
0.42348139716 0.42343753576 0.42337323754 0.42328443666 0.4231693062 0.42303128314 0.42287844114 0.42272359418 0.42258233949 
0.42246742713 0.4223882446 0.42234531873 0.4223340746 0.42234564137 0.4223738925 0.42241582662 0.42247423316 0.42255691385 
0.42267439156 0.45222053157 0.45220569765 0.45217416501 0.4521181258 0.45203247969 0.4519153197 0.45177031398 0.45160778553 
0.45144169263 0.45128790584 0.45116162997 0.45107012811 0.45101470762 0.45099140975 0.45099188178 0.45101052382 0.45104492429 
0.45109789763 0.45117725328 0.45129178585 0.46112803725 0.46110038959 0.46106477701 0.46102384941 0.4609801148 0.46093733852 
0.46089913771 0.46086603568 0.46083759574 0.46081006801 0.46077839021 0.46073788104 0.46068380308 0.46061360059 0.46052479693 
0.46041527337 0.46028571363 0.46014024169 0.45998576354 0.45983096311 0.44021150598 0.44017566246 0.44013286377 0.44008588538 
0.44003740351 0.43999287135 0.43995373192 0.43992208135 0.43989584481 0.43987101291 0.43984267056 0.43980565798 0.43975617971 
0.43969093893 0.43960693234 0.43950267933 0.43937803224 0.43923651644 0.43908563228 0.4389357361 0.41854795189 0.41850471684 
0.41845469305 0.41840123746 0.41834862231 0.41830058316 0.41826060955 0.41822866273 0.41820285582 0.41817905396 0.41815233091 
0.41811863572 0.41807355777 0.41801461943 0.41793828359 0.41784254212 0.41772736527 0.41759640177 0.4174560917 0.41731672738 
0.39707986671 0.39703100117 0.3969758642 0.396917899 0.396861289 0.39681109864 0.39676931408 0.39673620836 0.39670945385 
0.39668505751 0.39665892689 0.39662719352 0.39658663701 0.3965342644 0.39646669868 0.39638236864 0.39628016085 0.39616376357 
0.39603885246 0.39591546449 0.37672245039 0.37667064895 0.37661327567 0.3765528655 0.37649507144 0.37644331583 0.37640013934 
0.37636524518 0.37633633788 0.37631089849 0.37628408676 0.37625368951 0.37621674833 0.37617035812 0.37611175877 0.37603944943 
0.37595175366 0.37585218283 0.3757462595 0.3756416458 0.35828817318 0.35823665926 0.35817960974 0.3581204304 0.35806322488 
0.35801153222 0.35796736519 0.35793073887 0.3579000858 0.3578721623 0.35784433513 0.35781462688 0.35777987809 0.3577385709 
0.35768819239 0.35762667684 0.35755410624 0.35747234812 0.35738583031 0.35730196209 0.34243850692 0.34238920258 0.34233483862 
0.34227848403 0.34222338939 0.34217296626 0.3421288866 0.34209047629 0.34205775253 0.34202746105 0.34199858538 0.3419688831 
0.34193602759 0.34189889871 0.34185542588 0.34180377461 0.34174535817 0.34168084075 0.34161377722 0.34154987192 0.32966075896 
0.32961462304 0.32956428009 0.32951187999 0.32946037715 0.32941129126 0.32936655614 0.32932754272 0.32929266908 0.32926063085 
0.32923046946 0.3292006498 0.32916907419 0.32913561182 0.32909789506 0.32905568764 0.32900973028 0.32896055079 0.32891166354 
0.32886642507 0.3202819837 0.32023856956 0.32019181646 0.32014323337 0.32009459519 0.32004753206 0.320003095 0.31996268155 
0.31992525862 0.31989202414 0.31986064181 0.31983066038 0.31980121617 0.31977046352 0.31973841514 0.31970457 0.31966962026 
0.31963478677 0.31960205589 0.31957381545 0.31449820335 0.31445704463 0.31441334242 0.31436708912 0.31432028898 0.31427362947 
0.31422902648 0.3141869957 0.31414809538 0.31411305334 0.31408072844 0.31405068882 0.31402236091 0.31399509099 0.31396848928 
0.31394226967 0.31391818117 0.31389555373 0.31387718811 0.31386414155 0.31241396949 0.31237370129 0.31233072655 0.31228562176 
0.31223937414 0.31219236494 0.31214630391 0.31210220429 0.31206141423 0.31202338429 0.31198993149 0.31195995029 0.31193335281 
0.31190976051 0.31188865057 0.3118705016 0.31185549304 0.31184489628 0.31183957077 0.3118404184 0.31407264861 0.31403200526 
0.31398871334 0.31394255826 0.31389482205 0.3138458781 0.3137967695 0.31374961322 0.31370486675 0.31366414046 0.31362958434 
0.31359912306 0.31357379911 0.31355442764 0.31353883892 0.31352813161 0.31352263335 0.31352270942 0.31352980815 0.31354459508 
0.31947084632 0.31942945055 0.31938440326 0.31933622665 0.31928491769 0.31923190362 0.31917805177 0.31912523245 0.31907607946 
0.3190313584 0.31899333304 0.31896290755 0.31893942803 0.31892330875 0.31891378797 0.31891055857 0.31891423072 0.31892488586 
0.31894445413 0.31897278204 0.32855542524 0.32851246729 0.32846496174 0.32841326523 0.32835733237 0.32829847521 0.32823785956 
0.32817791599 0.32812127596 0.3280704732 0.32802821182 0.32799627622 0.32797418637 0.32796168845 0.32795797448 0.32796185116 
0.32797426673 0.3279955184 0.32802685045 0.32806922557 0.34119765101 0.34115293221 0.3411032948 0.34104724119 0.34098594473 
0.34091979997 0.34085077246 0.34078167304 0.34071538831 0.34065624321 0.34060736107 0.3405720423 0.34055040531 0.34054108746 
0.34054246686 0.34055345195 0.34057368753 0.34060420506 0.34064676616 0.34070321214 0.35715818542 0.35711337526 0.35706168541 
0.35700206329 0.35693507995 0.35686168217 0.35678265048 0.35670213085 0.35662435882 0.35655471757 0.35649810243 0.35645733221 
0.35643357255 0.3564260385 0.35643134362 0.35644726428 0.35647416806 0.35651302171 0.35656608778 0.35663479164 0.3760525642 
0.37600850226 0.37595708784 0.37589583704 0.37582410355 0.37574270808 0.37565390765 0.37556081306 0.37547040894 0.37538872375 
0.37532218903 0.37527428318 0.37524684973 0.37523840302 0.37524513787 0.3752643383 0.37529549889 0.37534069264 0.37540168838 
0.37548129538 0.39732484723 0.39728538958 0.3972366014 0.39717558461 0.3971011112 0.39701350086 0.39691499399 0.39681071679 
0.39670780881 0.39661404196 0.39653630019 0.39648024877 0.39644707833 0.39643461021 0.39643985332 0.39645934483 0.39649234463 
0.39654008628 0.3966060389 0.39669351397 0.42025947913 0.42022631633 0.42018293027 0.42012454257 0.4200498218 0.41995830349 
0.4198529064 0.41973963114 0.41962598386 0.41952131457 0.41943411114 0.41936949719 0.41932872602 0.41931049837 0.41931111278 
0.41932768732 0.41935917989 0.41940663883 0.41947404314 0.41956470848 0.4440129418 0.44398746763 0.44395067618 0.44389733681 
0.44382465885 0.44373244239 0.44362363359 0.4435051598 0.44338513584 0.44327398518 0.44317927867 0.44310753589 0.44305963768 
0.44303489767 0.44302915324 0.44304028454 0.4430676941 0.4431118066 0.44317672024 0.44326603624 0.44630128142 0.44627865651 
0.44624885274 0.44621406326 0.4461761399 0.4461378544 0.44610021581 0.44606459343 0.44603021713 0.44599510305 0.44595635788 
0.44591086544 0.44585580433 0.44578959164 0.44571035337 0.44561701105 0.44551067 0.44539432379 0.44527221831 0.44515031716 
0.42937214087 0.42934389836 0.42930915185 0.42927051495 0.42923007182 0.42919045615 0.42915309167 0.42911817251 0.42908550669 
0.42905285693 0.42901682569 0.42897444738 0.42892254443 0.42885985419 0.42878425592 0.42869498776 0.42859180679 0.42847919374 
0.4283606383 0.42824283553 0.4118238968 0.41179058097 0.4117512343 0.41170896798 0.41166566413 0.41162393097 0.411585998 
0.41155145524 0.41151955097 0.41148804298 0.41145378539 0.41141409985 0.41136640475 0.41130781341 0.41123748911 0.41115435773 
0.41105838474 0.41095326758 0.4108423286 0.41073272818 0.39439715251 0.3943596123 0.3943170002 0.39427141727 0.39422569026 
0.39418256619 0.39414339235 0.39410841895 0.394076434 0.39404528477 0.3940125352 0.39397498289 0.39393070713 0.39387777465 
0.39381360461 0.39373826142 0.39365177824 0.39355698947 0.39345716149 0.39335910265 0.37781363865 0.37777335014 0.37772848885 
0.37768142977 0.37763452214 0.3775901935 0.3775502823 0.37751418323 0.37748202308 0.37745062464 0.37741817219 0.37738220577 
0.37734149507 0.37729327425 0.37723622267 0.37716972855 0.37709425899 0.37701135258 0.3769250341 0.37684057768 0.36272760374 
0.36268673082 0.36264125666 0.36259399383 0.36254697872 0.3625024118 0.3624616491 0.36242508504 0.36239146674 0.36235963704 
0.36232767753 0.36229325386 0.36225513188 0.36221176845 0.36216164685 0.36210380045 0.36203909484 0.36196967764 0.36189760756 
0.36182762491 0.34969173296 0.34965132829 0.34960675594 0.34956056914 0.34951451061 0.34947011956 0.3494289834 0.34939174295 
0.34935706115 0.34932456953 0.34929243727 0.34925911157 0.34922364509 0.34918434048 0.34914048733 0.34909128268 0.34903791252 
0.34898125001 0.34892309579 0.34886797857 0.33913941202 0.33909967319 0.33905699379 0.33901230379 0.33896748627 0.33892369886 
0.33888242521 0.33884418305 0.33880886268 0.33877532282 0.33874310549 0.33871082443 0.33867744137 0.33864189329 0.33860377317 
0.33856279502 0.33851968424 0.33847496354 0.33843097323 0.33838996219 0.33138345881 0.33134502385 0.33130364356 0.33126060005 
0.33121714139 0.3311741565 0.33113288947 0.33109332988 0.33105672293 0.3310228607 0.3309903379 0.33095844747 0.33092701034 
0.33089527399 0.33086255362 0.3308292753 0.33079544006 0.33076224193 0.33073079022 0.33070329406 0.32663294756 0.32659538114 
0.32655504573 0.32651284615 0.3264700538 0.32642723793 0.3263853366 0.32634499012 0.32630680514 0.32627184383 0.3262389782 
0.32620780204 0.32617847772 0.32615016291 0.32612256877 0.32609619645 0.32607129114 0.32604880751 0.32602921955 0.32601387043 
0.32501126664 0.32497387578 0.324933958 0.32489181526 0.324848574 0.32480496681 0.3247615433 0.32471981882 0.3246801974 
0.3246432607 0.32460984264 0.32457893934 0.32455091878 0.32452622175 0.32450387755 0.32448418091 0.32446800746 0.32445543444 
0.32444670688 0.32444294284 0.3265717518 0.32653387537 0.326493244 0.32645050919 0.32640576082 0.32636068904 0.32631458054 
0.32627016603 0.32622808039 0.32618893261 0.32615432312 0.32612366321 0.32609741582 0.3260756389 0.32605816379 0.32604532452 
0.32603670888 0.32603336817 0.32603533176 0.32604343608 0.33130791138 0.33126904986 0.33122692332 0.33118205496 0.33113513458 
0.33108638022 0.3310372926 0.33098896832 0.33094343531 0.33090137899 0.3308644906 0.33083391711 0.33080886317 0.33078982462 
0.33077724845 0.33077035293 0.33076955438 0.33077502947 0.33078746481 0.33080684046 0.33914845646 0.33910837407 0.33906471566 
0.3390174524 0.33896721653 0.33891429193 0.33886029868 0.33880690724 0.33875625677 0.33871016547 0.33867018188 0.33863832736 
0.33861444931 0.33859805156 0.33858953161 0.33858813347 0.3385945911 0.33860876394 0.33863116441 0.33866178631 0.34994752019 
0.34990674905 0.34986139868 0.34981140712 0.34975715799 0.34969935673 0.34963983102 0.34958011227 0.34952285921 0.34947109441 
0.34942681516 0.34939267829 0.3493682251 0.34935410573 0.34934907618 0.34935297487 0.34936546069 0.34938725272 0.3494188891 
0.34946030589 0.36346370432 0.3634224503 0.36337570453 0.363323505 0.36326577497 0.36320276534 0.36313652871 0.36306935106 
0.36300476298 0.36294617197 0.3628966416 0.36285885912 0.36283311262 0.36281944467 0.36281698492 0.36282460842 0.3628422931 
0.36287050687 0.36291023298 0.36296149546 0.37934294608 0.37930233605 0.37925607965 0.37920222005 0.37914123103 0.37907366264 
0.37900065793 0.37892589382 0.37885349006 0.3787874528 0.378731475 0.37868860273 0.37866031561 0.37864604503 0.37864464917 
0.37865432138 0.37867561162 0.37870881357 0.37875471988 0.37881454882 0.39711145975 0.39707327584 0.39702844514 0.39697498383 
0.39691222145 0.39684081991 0.3967625479 0.39668087271 0.39660066237 0.39652741435 0.39646498459 0.39641652489 0.39638453311 
0.39636763064 0.39636499202 0.3963753435 0.39639805186 0.39643381619 0.39648379955 0.39654927636 0.41618642083 0.41615217595 
0.41611051258 0.41605878658 0.41599554829 0.41592196771 0.41583970521 0.41575286688 0.41566680556 0.41558675295 0.41551875155 
0.41546525882 0.41542885328 0.4154083291 0.41540311067 0.41541165489 0.41543387718 0.41546974504 0.4155213071 0.41558888737 
0.43590022279 0.43587048414 0.43583285564 0.43578416466 0.43572290585 0.43564911354 0.43556521571 0.43547584505 0.43538607425 
0.4353026482 0.43523011495 0.43517242296 0.43513201172 0.43510765145 0.43509919509 0.43510478223 0.43512446719 0.43515845967 
0.43520845286 0.43527549803 0.43282128556 0.43280310658 0.43277843016 0.43274832534 0.43271490892 0.43267938308 0.43264326075 
0.43260652644 0.43256947577 0.43253088679 0.4324887796 0.43244135904 0.43238720156 0.43232491996 0.43225348241 0.43217261521 
0.43208265554 0.43198663652 0.43188659583 0.43178661464 0.41916438343 0.41914190244 0.4191134002 0.41908104418 0.41904616841 
0.4190098437 0.41897401591 0.41893839809 0.41890312975 0.41886636018 0.41882645016 0.41878163019 0.41873019096 0.41867037256 
0.41860177702 0.41852362044 0.41843682881 0.41834390031 0.41824701621 0.41815055735 0.40498222441 0.40495605683 0.40492470502 
0.40488953965 0.40485246451 0.40481565922 0.40477927956 0.40474408217 0.40470949429 0.40467416085 0.40463615129 0.40459360531 
0.40454520677 0.40448896882 0.4044242792 0.40435101713 0.40426949847 0.404181831 0.4040911573 0.40400098691 0.39086660997 
0.39083700775 0.39080291539 0.39076569416 0.39072708436 0.39068887189 0.39065230103 0.39061694003 0.39058285451 0.39054801479 
0.39051154336 0.39047119623 0.39042589035 0.39037361075 0.39031424899 0.39024663964 0.39017219241 0.39009232087 0.39000985787 
0.38992818509 0.37739542277 0.37736357413 0.37732760908 0.37728892797 0.37724930993 0.37721042888 0.37717269133 0.37713751217 
0.37710339766 0.37706917213 0.37703364623 0.37699540971 0.37695282401 0.37690510762 0.37685105917 0.37678992715 0.37672360155 
0.37665316671 0.37658018085 0.37650859605 0.36510195657 0.36506879077 0.36503161577 0.36499235394 0.36495246407 0.36491288878 
0.36487515579 0.36483942809 0.36480469199 0.36477085427 0.36473628944 0.36469958105 0.36466006127 0.36461640767 0.36456765657 
0.36451413483 0.36445652502 0.36439570365 0.36433322498 0.36427273436 0.35444737655 0.35441340136 0.35437632817 0.35433742416 