# vtk DataFile Version 5.1
vtk output
ASCII
DATASET STRUCTURED_POINTS
DIMENSIONS 20 20 20
SPACING 0.005 0.005 0.005
ORIGIN 0.2189 -0.051172 0.02882
POINT_DATA 8000
FIELD FieldData 1
potential 1 8000 double
0.00093484813517 0.00091871932425 0.00090291950852 0.00088747901395 0.00087243293041 0.00085780027663 0.00084358550731 0.0008297839785 0.00081638201455 
0.00080340620052 0.00079085744075 0.00077873712743 0.00076703465857 0.00075572606592 0.00074478406382 0.00073417849325 0.00072387806791 0.00071385826102 
0.00070409905971 0.00069457422228 0.00094862644751 0.00093208035715 0.00091586739393 0.00090002543987 0.00088459145789 0.00086958863457 0.00085502342236 
0.00084088881836 0.00082718182858 0.00081390507366 0.00080105740668 0.00078866210462 0.00077670064346 0.00076515153455 0.00075398282842 0.0007431594848 
0.00073264707454 0.00072241373098 0.00071244127861 0.00070270884462 0.00095979299646 0.00094289410673 0.00092633020028 0.00091014169048 0.00089436759355 
0.00087903749198 0.0008641601634 0.00084973292907 0.00083575060254 0.00082221092619 0.00080911903241 0.00079646945632 0.00078427561408 0.00077250581323 
0.00076113117146 0.00075010805994 0.00073939561435 0.00072896014111 0.00071878410858 0.00070885419697 0.00096814330083 0.0009509609491 0.00093411729592 
0.00091764694461 0.0009015923808 0.00088598570886 0.00087084222362 0.00085616336484 0.00084194418021 0.00082817877243 0.0008148680143 0.00080201654378 
0.00078961892978 0.00077764486945 0.00076608143163 0.00075487461449 0.00074397787478 0.00073335907422 0.00072299955177 0.00071289447918 0.000974257976 
0.00095685116217 0.00093978866112 0.000923098457 0.00090681764889 0.00089098061797 0.00087560960759 0.00086071233334 0.00084628551421 0.0008323228106 
0.0008188240229 0.00080578739805 0.00079320887031 0.00078106540271 0.00076931481332 0.00075793313365 0.0007468649185 0.00073608090061 0.00072556061122 
0.00071530370076 0.00097923022658 0.00096163598974 0.00094439431136 0.00092752267208 0.00091105349459 0.00089501742189 0.00087944508411 0.00086435029786 
0.00084973488535 0.00083559447631 0.00082192472867 0.00080872057792 0.00079597179031 0.00078365455897 0.00077173801131 0.00076018117773 0.00074893747426 
0.0007379959608 0.00072732918065 0.00071693551235 0.00098422357881 0.00096644505668 0.00094903178867 0.00093199130837 0.00091534622264 0.00089912825337 
0.0008833676485 0.00086808670375 0.00085329405583 0.00083898538068 0.00082515377493 0.00081178764415 0.00079886947937 0.00078637599807 0.00077427856674 
0.00076254213438 0.00075113745705 0.00074002666461 0.00072921287696 0.00071867971648 0.00099012045685 0.00097213599331 0.00095453555637 0.00093731247499 
0.00092048678599 0.00090408495196 0.00088814300915 0.00087268514448 0.0008577244147 0.00084325273559 0.00082926071088 0.00081572925803 0.00080263651546 
0.00078995990812 0.00077767323637 0.00076575018827 0.00075416321556 0.00074288832148 0.00073190192296 0.00072121398043 0.00099741576343 0.00097919399215 
0.00096137681131 0.000943954074 0.00092693508077 0.0009103450818 0.00089422341086 0.00087859461835 0.00086346936325 0.00084884068131 0.00083468679029 
0.00082098467838 0.00080770921134 0.00079483977288 0.00078235416419 0.00077023154203 0.00075844690657 0.0007469774731 0.0007358116613 0.00072492985846 
0.0010063245776 0.00098783186306 0.00096976927971 0.00095212255958 0.00093489707495 0.00091811916294 0.00090181964326 0.0008860223304 0.00087073999663 
0.00085595567428 0.00084163853652 0.00082775861422 0.00081429231963 0.00080121809762 0.00078852162093 0.00077618374016 0.00076418056497 0.00075249385049 
0.00074110857183 0.00073001960995 0.0010169114535 0.00099811706693 0.00097978316227 0.00096189091417 0.00094444658148 0.00092747406166 0.00091100062576 
0.00089504456339 0.00087960745946 0.00086466140531 0.00085017732253 0.00083611491495 0.00082244711022 0.00080915630633 0.00079623219575 0.00078366191162 
0.00077142116622 0.00075949186396 0.00074786068428 0.00073652500354 0.0010291958243 0.0010100648356 0.00099142814299 0.00097327082695 0.00095559657323 
0.00093842246839 0.00092176995644 0.00090564938431 0.00089005074593 0.00087494279644 0.00086028156872 0.00084602251876 0.0008321449882 0.00081862784918 
0.00080546510711 0.00079264615221 0.00078015107647 0.00076795796896 0.00075605724629 0.00074445023444 0.0010431919111 0.0010236846053 0.0010047074847 
0.00098625242144 0.00096832163009 0.00095092682617 0.00093407858133 0.00091777435029 0.00090199526128 0.00088670062732 0.0008718457003 0.00085738555804 
0.00084328983542 0.00082953910033 0.0008161309805 0.00080305575803 0.00079029313103 0.00077782419269 0.00076564041389 0.00075374423019 0.0010588901217 
0.0010389575574 0.0010195917021 0.0010007906228 0.00098256036037 0.00096490546606 0.00094782428665 0.00093129936058 0.00091530033778 0.00089978636178 
0.00088470954353 0.00087002989307 0.00085571270463 0.00084173654837 0.00082808915683 0.00081475252463 0.00080171998345 0.00078896987117 0.00077649620079 
0.00076430377384 0.0010761709641 0.0010557545292 0.001035938546 0.0010167323626 0.00099814493797 0.00098017438222 0.00096280618511 0.00094600766865 
0.00092974071323 0.00091396551749 0.00089863801215 0.00088372091932 0.00086917767785 0.00085497893801 0.00084109905327 0.00082751902986 0.00081421910801 
0.00080118644341 0.00078842293146 0.00077593441162 0.001094649236 0.0010736971987 0.0010533737501 0.0010337015235 0.0010146935845 0.00099634521607 
0.00097862785799 0.00096150004792 0.00094491766242 0.00092884280062 0.00091323726633 0.00089806699678 0.00088329188785 0.00086887336443 0.00085477183154 
0.00084095495868 0.00082740103856 0.00081410042773 0.00080105097516 0.00078827100045 0.0011135160381 0.0010919938142 0.0010711269123 0.001050945982 
0.00103147093 0.0010126942766 0.00099458081576 0.00097708235569 0.00096015436301 0.00094375569768 0.00092785750418 0.0009124215414 0.00089740763707 
0.00088276609375 0.00086844702838 0.00085440506392 0.00084061053085 0.00082705432678 0.00081374293023 0.00080068981288 0.0011315156052 0.0011094326067 
0.0010880209529 0.0010673226854 0.0010473625595 0.0010281360382 0.0010096060177 0.00099172552581 0.00097444415419 0.00095772364649 0.00094153131854 
0.00092582799546 0.000910571201 0.0008957042791 0.00088116970428 0.00086691206048 0.00085289827959 0.00083911505383 0.00082556982509 0.00081227648107 
0.0011472268615 0.0011246277133 0.0011027123688 0.0010815261127 0.0010610997905 0.0010414324072 0.0010224988663 0.0010042515879 0.00098663897428 
0.00096961748167 0.00095314942053 0.00093719196321 0.00092169886298 0.00090660967195 0.00089186648851 0.00087741181089 0.00086320775004 0.00084923678615 
0.00083550181959 0.00082201333304 0.0011595736455 0.0011365343822 0.0011141829151 0.0010925680782 0.0010717225419 0.0010516552362 0.0010323493298 
0.0010137674632 0.00099585759952 0.00097856808339 0.00096185132958 0.0009456629703 0.00092995266547 0.0009146617864 0.00089973033791 0.00088510550871 
0.00087074854516 0.00085663634577 0.00084276276627 0.00082913264659 0.001076962731 0.0010586205045 0.0010406832592 0.0010231603811 0.0010060691527 
0.00098942178192 0.00097322308219 0.00095747245065 0.00094215931529 0.00092730299918 0.00091289207236 0.00089892226023 0.00088538173696 0.00087225159648 
0.00085950870411 0.00084713024524 0.00083508964557 0.00082336362667 0.00081193291063 0.00080077556047 0.0010911922117 0.0010724139201 0.0010540519291 
0.0010361168931 0.001018628451 0.0010015989335 0.00098503471202 0.00096893475301 0.00095329695562 0.0009381198261 0.00092339264062 0.0009091302026 
0.00089531110144 0.00088191699746 0.00086892155911 0.0008563010903 0.00084402708255 0.00083207333017 0.00082041991122 0.00080904861188 0.0011038339222 
0.0010846583684 0.0010659081972 0.0010475952376 0.0010297388941 0.0010123549062 0.00099545077722 0.00097902548366 0.00096307682246 0.00094760184438 
0.00093259863609 0.00091805227616 0.00090397032252 0.00089032387038 0.00087708905449 0.00086423592349 0.00085173502655 0.00083955891987 0.00082768895704 
0.00081610867309 0.0011147821138 0.0010952501088 0.0010761535991 0.0010575015044 0.0010393141016 0.001021607679 0.0010043914512 0.00098766709608 
0.00097143233971 0.00095568390505 0.00094041602592 0.00092562373697 0.00091129602591 0.00089740264324 0.00088393869344 0.00087086290949 0.00085814270924 
0.00084575412632 0.00083367709425 0.00082189936174 0.001124347538 0.0011044948978 0.0010850874354 0.001066132753 0.0010476471414 0.0010296474168 
0.0010121455747 0.00099514563482 0.00097864654145 0.00096264368291 0.00094713101047 0.00093210076695 0.00091754091169 0.00090343005227 0.00088973452423 
0.00087644226438 0.00086351090836 0.0008509183383 0.00083864434069 0.00082667832674 0.0011331411699 0.0011129899129 0.0010932956664 0.0010740619097 
0.0010553019755 0.001037030795 0.0010192623109 0.0010020039066 0.00098525596858 0.00096901317502 0.00095326893655 0.00093801193331 0.00092322820138 
0.00090889573617 0.00089499111502 0.00088147371453 0.00086833514815 0.00085554158933 0.00084307439718 0.00083092472369 0.0011418582228 0.0011214128144 
0.0011014400255 0.0010819376065 0.0010629147463 0.0010443847215 0.001026361607 0.0010088562057 0.00099186777803 0.00097539429177 0.00095942505059 
0.00094394603955 0.00092894058321 0.00091438705567 0.0009002613207 0.00088653662138 0.00087318604747 0.00086017961879 0.00084751800963 0.00083518059374 
0.0011511018298 0.0011303531297 0.0011100955331 0.0010903188826 0.0010710318296 0.0010522453009 0.0010339731765 0.0010162261139 0.00099900606659 
0.00098230528156 0.00096611325388 0.00095041349522 0.00093518360878 0.00092040486653 0.00090605246093 0.00089210385699 0.00087853466487 0.00086532368435 
0.00085244773529 0.00083991190202 0.0011612834776 0.0011402139551 0.0011196547358 0.0010995962868 0.001080039054 0.0010609913631 0.0010424705198 
0.0010244850739 0.0010070345371 0.00099011070181 0.00097369581659 0.00095777050211 0.00094231245535 0.00092730063203 0.00091271459225 0.00089853292775 
0.00088473235623 0.00087129406942 0.0008582050908 0.00084544180142 0.0011726479281 0.0011512332811 0.0011303528314 0.0011099939696 0.0010901559132 
0.0010708462441 0.001052076169 0.0010338497621 0.0010161701291 0.00099902183031 0.00098238088606 0.00096622631527 0.00095053176349 0.00093528038188 
0.00092045017117 0.0009060225468 0.00089197810168 0.00087829564228 0.00086496455101 0.00085197177718 0.0011853135632 0.0011635283575 0.0011423047479 
0.0011216271933 0.0011014939886 0.0010819123016 0.0010628879067 0.0010444223667 0.001026509865 0.0010091286167 0.00099225799568 0.0009758667488 
0.00095993026043 0.0009444285953 0.00092934447348 0.00091466034639 0.00090035563046 0.00088641390055 0.00087282264695 0.00085956993847 0.0011993225202 
0.0011771373228 0.0011555451357 0.0011345283794 0.0011140851049 0.0010942181854 0.0010749291109 0.0010562135248 0.0010380590771 0.0010204409205 
0.0010033309141 0.00098669142803 0.0009705046699 0.00095474629692 0.00093939947399 0.00092444658503 0.00090987125772 0.0008956543936 0.000881786203 
0.00086825751007 0.0012146615682 0.0011920452952 0.0011700516095 0.0011486686057 0.0011278912671 0.0011077178423 0.0010881457739 0.0010691633251 
0.0010507513868 0.0010328793513 0.0010155159468 0.0009986242205 0.0009821791302 0.00096615553043 0.0009505392161 0.00093531242537 0.00092045727773 
0.00090595615036 0.000891800998 0.00087798208738 0.0012312509705 0.0012081666822 0.0011857373421 0.0011639524799 0.0011428086482 0.0011222995189 
0.0011024159307 0.0010831383836 0.0010644436473 0.0010462955213 0.0010286605147 0.0010115031722 0.00099479405566 0.00097850757982 0.00096262286681 
0.0009471165855 0.00093197857671 0.00091718928858 0.00090274094479 0.00088862736533 0.001248892009 0.0012253044057 0.0012024000803 0.00118017574 
0.0011586257319 0.0011377442736 0.0011175141188 0.0010979111499 0.0010789018047 0.0010604528554 0.0010425278601 0.0010250923314 0.0010081133681 
0.00099156030022 0.00097540797748 0.00095963065693 0.00094420957165 0.00092913433151 0.00091439504602 0.00089998563631 0.0012672095489 0.0012430863471 
0.0012196722406 0.0011969698123 0.0011749780753 0.0011536876396 0.0011330744867 0.0011131101504 0.0010937588507 0.0010749848495 0.001056753241 
0.0010390289277 0.0010217753922 0.0010049568205 0.00098854100005 0.00097249848672 0.00095680755012 0.0009414535978 0.0009264254909 0.00091172733441 
0.0012855911484 0.0012609143256 0.0012369710657 0.001213767175 0.0011913058133 0.0011695769649 0.0011485542535 0.0011282048809 0.0011084920687 
0.0010893797218 0.0010708315348 0.0010528111063 0.0010352792165 0.0010181950619 0.0010015210878 0.0009852205622 0.00096926816544 0.00095364755893 
0.00093835175337 0.00092338202429 0.0013032427899 0.0012780160144 0.0012535421419 0.0012298326798 0.001206892301 0.0011847125823 0.0011632687412 
0.0011425259908 0.0011224465476 0.0011029918736 0.0010841261755 0.0010658093518 0.0010479998074 0.0010306531366 0.0010137266036 0.0009971781841 
0.0009809800694 0.00096511337134 0.00094957015945 0.00093434855845 0.0013193469098 0.0012935965654 0.0012686149529 0.0012444144673 0.001221006387 
0.0011983814137 0.0011765230393 0.0011553930431 0.0011349545558 0.0011151663029 0.0010959908021 0.0010773841185 0.001059304735 0.0010417030798 
0.0010245334835 0.0010077535978 0.00099133068757 0.00097524404165 0.00095948286054 0.00094404169371 0.0013333188603 0.0013070883437 0.0012816385177 
0.0012569822131 0.0012331316695 0.0012100831706 0.0011878253407 0.0011663241633 0.0011455410432 0.0011254361437 0.0011059639005 0.001087081452 
0.0010687435037 0.0010509014862 0.0010335048967 0.0010165127516 0.00099989040938 0.00098361380163 0.00096766584715 0.00095204085112 0.001219830211 
0.0011992374953 0.0011791181372 0.0011594727704 0.0011403052415 0.001121621941 0.0011034235283 0.0010857094589 0.0010684671075 0.0010517125584 
0.0010354285329 0.0010196076702 0.0010042361738 0.00098929824528 0.00097477339604 0.00096064129132 0.00094687965901 0.00093346842416 0.0009203865196 
0.00090761580148 0.0012350144985 0.0012139543342 0.0011933844143 0.00117330199 0.0011537136778 0.0011346245067 0.0011160369689 0.0010979490527 
0.0010803567296 0.0010632563324 0.0010466324367 0.0010304940646 0.0010148195177 0.00099959158388 0.00098478692603 0.00097038781024 0.00095636864877 
0.00094270789977 0.00092938510051 0.00091638373205 0.0012492354576 0.0012277318239 0.0012067320564 0.0011862321543 0.0011662419222 0.0011467641058 
0.0011278026589 0.0011093554325 0.0010914186426 0.0010739862496 0.0010570528343 0.001040599424 0.0010246300708 0.0010091189351 0.00099404249847 
0.00097938038647 0.00096510713958 0.00095119943577 0.00093763918137 0.00092440798854 0.0012624345812 0.0012405109463 0.0012191045776 0.0011982123884 
0.0011778409103 0.0011579950187 0.0011386776323 0.0011198873027 0.0011016208012 0.0010838720841 0.0010666332612 0.001049894427 0.0010336405075 
0.0010178438507 0.0010025030257 0.00098758316896 0.00097305979108 0.00095891033639 0.00094511578191 0.00093165997275 0.0012747869164 0.0012524653011 
0.0012306744091 0.0012094109786 0.0011886786037 0.0011684819967 0.0011488259741 0.0011297082345 0.0011111270335 0.001093074688 0.0010755420838 
0.001058518972 0.001041989319 0.0010259336747 0.0010103223882 0.00099514856486 0.00098037933076 0.00096599039413 0.00095196545464 0.00093828957297 
0.0012866512386 0.0012639443352 0.0012417830197 0.00122016282 0.0011990842305 0.0011785523909 0.0011585697443 0.0011391378897 0.001120251888 
0.0011019059421 0.0010840895473 0.0010667893523 0.001049988849 0.0010336687435 0.0010178075895 0.0010023713425 0.00098735594417 0.00097272931878 
0.00095847522324 0.00094457847578 0.0012984561987 0.0012753668079 0.0012528414274 0.0012308719221 0.0012094551288 0.0011885965419 0.0011682962264 
0.0011485576496 0.0011293744743 0.0011107410307 0.0010926449018 0.0010750714638 0.001058001834 0.0010414177738 0.0010252959219 0.0010096151839 
0.00099435115101 0.00097947330787 0.00096498645148 0.00095086465618 0.001310609513 0.0012871332341 0.0012642402834 0.0012419160863 0.001220162279 
0.0011989782077 0.001178364059 0.0011583226214 0.0011388473552 0.0011199288213 0.0011015556578 0.001083709325 0.001066369837 0.0010495182862 
0.0010331330717 0.0010171921987 0.0010016735171 0.00098655796297 0.00097181956931 0.00095746317844 0.0013234225878 0.0012995478949 0.0012762762905 
0.0012535951164 0.001231499033 0.0012099839543 0.0011890567806 0.0011687127022 0.0011489461974 0.0011297442974 0.0011110919259 0.0010929701183 
0.0010753567314 0.0010582334458 0.0010415785397 0.0010253705497 0.0010095887512 0.00099421423711 0.0009792329126 0.0009646192162 0.0013371101101 
0.0013128177682 0.0012891529913 0.0012661005175 0.0012436527159 0.0012218078035 0.0012005621735 0.0011799109538 0.0011598499797 0.0011403630082 
0.0011214294046 0.0011030279141 0.0010851357422 0.0010677347006 0.0010508016655 0.0010343177453 0.001018263051 0.0010026185267 0.00098737107661 
0.00097250437386 0.0013517898005 0.0013270603672 0.0013029854428 0.0012795441512 0.0012567331761 0.0012345451552 0.0012129751787 0.001192016138 
0.0011716562496 0.0011518749889 0.001132654461 0.0011139679253 0.0010957909936 0.0010781041287 0.0010608864334 0.0010441179012 0.0010277796738 
0.0010118540938 0.00099632712727 0.00098118397277 0.0013675058676 0.0013423159688 0.0013178082977 0.0012939632003 0.0012707723899 0.0012482282037 
0.0012263219385 0.0012050431205 0.0011843749593 0.0011642951029 0.001144780253 0.0011257982097 0.0011073301017 0.0010893515909 0.001071841551 
0.0010547804604 0.0010381498017 0.0010219315079 0.00100611411 0.0009906833462 0.0013842320331 0.0013585561857 0.0013335922083 0.0013093187267 
0.001285728962 0.0012628105892 0.0012405528487 0.0012189392497 0.0011979498987 0.0011775585196 0.0011577384929 0.0011384572294 0.0011196912287 
0.0011014114945 0.0010836046667 0.0010662457922 0.0010493167036 0.001032800061 0.0010166839025 0.0010009535056 0.0014018684525 0.0013756810938 
0.0013502326716 0.0013255080157 0.0013014942138 0.0012781800215 0.0012555481289 0.0012335803948 0.0012122518827 0.0011915331844 0.0011713954807 
0.0011518031944 0.0011327324902 0.0011141568965 0.0010960496821 0.001078387525 0.0010611573164 0.0010443379262 0.0010279186215 0.0010118875024 
0.0014202176162 0.0013934937194 0.0013675370615 0.0013423334266 0.0013178692604 0.0012941330243 0.0012711049582 0.0012487611535 0.0012270739228 
0.0012060128889 0.0011855433537 0.0011656341226 0.0011462513442 0.0011273711715 0.0011089642164 0.0010910059912 0.0010734730707 0.0010563541117 
0.0010396333964 0.0010233003764 0.0014389667818 0.00141168594 0.0013851972998 0.001359491116 0.0013345544007 0.0013103735489 0.001286925417 
0.0012641846663 0.0012421201976 0.0012206996586 0.0011998871761 0.0011796519942 0.0011599583093 0.0011407737607 0.0011220689011 0.0011038148776 
0.0010859904104 0.0010685757626 0.0010515560972 0.0010349264263 0.0014576729262 0.001429825008 0.001402792885 0.0013765677306 0.0013511418198 
0.0013264982006 0.0013026141704 0.0012794619051 0.0012570069398 0.0012352177101 0.001214056874 0.0011934910599 0.0011734812753 0.001153994306 
0.0011349951281 0.0011164519291 0.0010983406719 0.0010806408945 0.0010633388671 0.0010464268715 0.0014758247653 0.0014474103189 0.001419833902 
0.001393088302 0.0013671660145 0.0013420523807 0.0013177247407 0.0012941526677 0.0012713035756 0.0012491417311 0.0012276309665 0.0012067335208 
0.0011864105429 0.0011666242047 0.0011473360614 0.001128512195 0.0011101258008 0.0010921560976 0.0010745849134 0.0010574045426 0.0014929318786 
0.0014639664628 0.0014358582594 0.0014085992755 0.0013821861638 0.0013566064347 0.0013318356284 0.0013078465442 0.0012846053121 0.0012620740491 
0.001240216145 0.0012189918952 0.0011983604606 0.0011782805691 0.0011587130812 0.0011396210294 0.0011209745034 0.0011027513394 0.0010849318789 
0.0010675052461 0.001508659557 0.0014791677303 0.0014505498072 0.0014227977505 0.0013959087935 0.001369870135 0.0013446662138 0.0013202681908 
0.0012966406938 0.0012737480218 0.0012515495135 0.0012300059439 0.0012090746369 0.0011887104676 0.0011688742705 0.0011495280069 0.0011306389312 
0.0011121821421 0.001094136971 0.0010764879889 0.0013629389812 0.0013400799046 0.0013177600938 0.0012959707085 0.0012747104582 0.0012539786966 
0.0012337721658 0.0012140873346 0.0011949100001 0.0011762517127 0.0011580946183 0.0011404276246 0.0011232361463 0.0011065049791 0.0010902150841 
0.0010743499188 0.0010588869291 0.0010438075844 0.0010290934691 0.0010147263296 0.0013793545523 0.0013559915773 0.0013331852449 0.0013109266001 
0.0012892145827 0.0012680466217 0.0012474211068 0.001227332936 0.0012077768283 0.0011887354329 0.0011702195021 0.0011522072613 0.0011346853178 
0.001117635954 0.0011010395246 0.001084879575 0.0010691335247 0.0010537815999 0.0010388040476 0.0010241842616 0.0013952028037 0.0013713477532 
0.0013480676942 0.0013253513322 0.0013031978338 0.001281603925 0.0012605680244 0.0012400855158 0.0012201493536 0.0012007516866 0.0011818834483 
0.0011635229699 0.0011456742257 0.0011283111162 0.0011114114652 0.0010949592941 0.0010789312465 0.0010633065273 0.0010480657862 0.0010331936152 
0.0014104471796 0.0013861159898 0.0013623748984 0.0013392140954 0.0013166312511 0.0012946235021 0.0012731879951 0.0012523207083 0.0012320142578 
0.0012122592127 0.0011930470182 0.0011743636103 0.0011561843934 0.0011385098374 0.0011213125531 0.0011045700718 0.0010882614236 0.0010723652423 
0.0010568632506 0.0010417389307 0.0014251953341 0.0014003984303 0.0013762085603 0.0013526157752 0.0013296147815 0.0013072043106 0.001285380223 
0.0012641372232 0.0012434691611 0.0012233657662 0.0012038162417 0.0011848068053 0.0011663208638 0.0011483397724 0.0011308357874 0.0011138040249 
0.0010972163104 0.0010810494119 0.0010652865432 0.00104991188 0.0014396627921 0.0014144064012 0.0013897752588 0.0013657591268 0.0013423501175 
0.0013195452283 0.0012973397966 0.0012757296677 0.0012547064924 0.0012342607507 0.0012143792587 0.0011950477109 0.0011762492105 0.0011579634604 
0.0011401720177 0.0011228431793 0.0011059748462 0.0010895360997 0.0010735109322 0.0010578829113 0.0014541194741 0.0014284051518 0.0014033375537 
0.0013789011991 0.0013550889231 0.0013318942945 0.0013093136065 0.0012873408464 0.0012659671758 0.0012451826536 0.0012249728597 0.0012053215601 
0.0011862099771 0.00116762018 0.001149530339 0.0011319206759 0.0011147691176 0.0010980458964 0.0010817543313 0.001065868558 0.0014688426414 
0.0014426667245 0.001417155591 0.0013922975123 0.0013680801664 0.0013444982722 0.001321544075 0.001299210418 0.0012774881944 0.0012563662815 
0.0012358284782 0.001215857001 0.0011964327109 0.0011775354521 0.0011591450745 0.0011412411994 0.0011238010804 0.0011068073475 0.0010902328681 
0.001074081532 0.001484055279 0.0014574090195 0.0014314517802 0.001406165352 0.0013815395881 0.001357562444 0.0013342323231 0.0013115382786 
0.0012894688846 0.0012680077057 0.0012471411201 0.0012268472916 0.0012071053584 0.0011878978327 0.001169201841 0.001150996903 0.0011332631533 
0.0011159810156 0.0010991343263 0.0010826975573 0.0014999257572 0.0014727949844 0.0014463760542 0.0014206523474 0.001395610036 0.0013712394535 
0.0013475284322 0.0013244666995 0.0013020452168 0.0012802429924 0.0012590429874 0.001238423538 0.0012183616575 0.0011988376382 0.0011798297637 
0.0011613181593 0.0011432824666 0.001125703372 0.0011085653581 0.0010918522771 0.0015165529437 0.0014889212428 0.0014620277675 0.0014358523795 
0.0014103825681 0.0013856045283 0.0013615060868 0.0013380760537 0.0013152961275 0.0012931461826 0.0012716081729 0.0012506567112 0.0012302687165 
0.0012104235636 0.001191098209 0.001172272555 0.0011539268774 0.0011360431688 0.0011186041299 0.001101595843 0.0015339718114 0.0015058210577 
0.0014784358865 0.001451794364 0.0014258827065 0.0014006865325 0.0013761910093 0.0013523793163 0.0013292330796 0.0013067314605 0.0012848482509 
0.0012635568908 0.0012428375063 0.0012226639539 0.0012030157 0.0011838700123 0.0011652077627 0.001147011184 0.0011292641539 0.0011119495254 
0.0015521531628 0.0015234625615 0.0014955664562 0.001468441279 0.0014420725708 0.0014164430934 0.001391535887 0.0013673326044 0.0013438096459 
0.0013209429873 0.0012987079412 0.0012770739488 0.0012560165494 0.0012355077168 0.0012155311179 0.0011960609924 0.0011770779868 0.0011585627536 
0.0011405011054 0.0011228753479 0.0015710022511 0.0015417525561 0.001513325734 0.0014856976363 0.001458853271 0.001432773647 0.001407438454 
0.0013828277081 0.0013589159002 0.0013356745744 0.0013130758877 0.0012910893672 0.0012696892712 0.001248848631 0.0012285377568 0.0012087416491 
0.001189433991 0.0011705974351 0.0011522176447 0.0011342773357 0.0015903488933 0.0015605223626 0.0015315457353 0.0015033976654 0.0014760584179 
0.0014495112425 0.0014237326536 0.0013986991246 0.0013743837527 0.0013507557382 0.0013277858248 0.0013054406136 0.0012836924122 0.0012625117406 
0.0012418727394 0.0012217489228 0.0012021158766 0.0011829609855 0.0011642639632 0.0011460090493 0.0016099503421 0.0015795326982 0.0015499917994 
0.0015213066545 0.0014934578118 0.0014664262951 0.0014401893503 0.0014147194693 0.0013899876859 0.001365963176 0.001342612465 0.0013199045567 
0.0012978053919 0.0012762848019 0.0012553142198 0.0012348662848 0.0012149170097 0.0011954453302 0.0011764319067 0.0011578681751 0.0016294922349 
0.0015984778631 0.001568362379 0.0015391296694 0.0015107595664 0.0014832328876 0.0014565252782 0.0014306097559 0.0014054523671 0.0013810234559 
0.0013572875614 0.0013342129176 0.0013117611299 0.0012899022945 0.0012686031721 0.0012478343139 0.0012275711129 0.0012077909217 0.0011884758534 
0.0011696093227 0.001648640559 0.0016170269584 0.0015863374847 0.0015565534908 0.0015276586536 0.0014996305123 0.0014724456887 0.0014460767278 
0.001420490426 0.0013956544208 0.0013715324697 0.0013480883326 0.0013252864139 0.0013030915943 0.0012814678044 0.0012603854732 0.0012398172515 
0.0012197385583 0.0012001296611 0.0011809775519 0.0016670868808 0.0016348834417 0.0016036255672 0.0015732936355 0.0015438758265 0.001515346888 
0.0014876863585 0.0014608642825 0.0014348494203 0.0014096057126 0.0013850971356 0.0013612876153 0.001338137781 0.0013156108888 0.0012936703745 
0.0012722827351 0.0012514195109 0.0012310550205 0.0012111669629 0.0011917414343 0.0016846289529 0.001651851772 0.0016200376523 0.0015891701237 
0.0015592344115 0.0015302099706 0.0015020767113 0.0014748044239 0.0014483640094 0.0014227152348 0.0013978246792 0.0013736529574 0.0013501618897 
0.0013273084451 0.0013050584137 0.0012833757239 0.0012622293661 0.0012415923959 0.0012214417691 0.0012017590464 0.0015059234166 0.0014807970258 
0.0014562713921 0.0014323319477 0.0014089737496 0.0013861885125 0.0013639727181 0.0013423178147 0.0013212068304 0.0013006486861 0.0012806241908 
0.0012611199816 0.0012421217182 0.0012236132786 0.0012055771654 0.0011879963003 0.0011708508976 0.0011541234061 0.0011377944187 0.0011218488604 
0.0015237258871 0.001498054734 0.0014730032029 0.0014485581934 0.0014247114507 0.0014014578736 0.0013787890487 0.0013566981178 0.0013351768987 
0.0013142056594 0.0012937918053 0.0012739137652 0.0012545552417 0.0012356996887 0.0012173290269 0.0011994264977 0.0011819721325 0.0011649454553 
0.0011483300854 0.001132107075 0.001541218711 0.0015150094854 0.0014894387245 0.0014644928622 0.0014401641155 0.0014164453787 0.0013933284589 
0.0013708066234 0.0013488695766 0.0013275075491 0.0013067084408 0.0012864484554 0.0012667317921 0.0012475311447 0.0012288274637 0.0012106033223 
0.0011928383437 0.0011755124615 0.0011586082256 0.0011421077977 0.0015583831012 0.0015316408614 0.0015055572164 0.0014801177891 0.0014553133656 
0.0014311348811 0.0014075760689 0.0013846281955 0.0013622811222 0.0013405227417 0.0013193417342 0.0012987230507 0.0012786406973 0.0012590954955 
0.0012400604603 0.0012215153245 0.0012034405135 0.0011858149061 0.0011686209814 0.0011518411903 0.001575280199 0.0015480113155 0.0015214220377 
0.0014954931476 0.0014702182647 0.0014455880324 0.00142159264 0.0013982238752 0.0013754702801 0.0013533206832 0.0013317623366 0.0013107780949 
0.0012903514201 0.0012704638713 0.0012510873061 0.0012322212825 0.0012138346711 0.0011959090405 0.0011784242725 0.0011613647748 0.0015920455271 
0.0015642525626 0.0015371591203 0.0015107478962 0.001485007249 0.0014599278901 0.0014355012028 0.00141171489 0.0013885601552 0.0013660226325 
0.0013440881188 0.0013227399484 0.0013019611787 0.0012817312334 0.0012620324152 0.0012428350034 0.0012241355282 0.0012059062237 0.0011881292485 
0.0011707878006 0.0016088544815 0.0015805366193 0.0015529397483 0.0015260456444 0.0014998418781 0.0014743161956 0.00144945961 0.0014252589321 
0.0014017042813 0.0013787803563 0.0013564720607 0.0013347608319 0.0013136288045 0.0012930559408 0.0012730238389 0.0012535107785 0.0012344857289 
0.0012159503774 0.0011978765323 0.0011802469138 0.0016258913081 0.0015970443605 0.0015689382825 0.0015415588389 0.0015148898615 0.0014889180207 
0.0014636311946 0.0014390166768 0.0014150615305 0.0013917515433 0.0013690684353 0.0013469930973 0.0013255068769 0.001304589577 0.0012842202029 
0.0012643783767 0.001245043465 0.0012261972536 0.0012078103701 0.0011898874337 0.0016433134402 0.0016139290101 0.0015853123578 0.0015574422122 
0.0015302998459 0.0015038767413 0.0014781574202 0.0014531273293 0.0014287717688 0.0014050724558 0.0013820130424 0.0013595717262 0.0013377277572 
0.0013164619787 0.0012957515143 0.0012755766811 0.0012559168712 0.0012367535453 0.0012180667528 0.001199832441 0.0016612446077 0.0016313117391 
0.0016021719261 0.0015738016586 0.001546185244 0.0015193054084 0.0014931485123 0.0014676952489 0.0014429342464 0.0014188434505 0.0013954040777 
0.0013725923628 0.0013503869287 0.0013287676722 0.0013077124087 0.0012871995274 0.0012672082679 0.0012477201138 0.0012287168655 0.0012101821096 
0.0016797596483 0.0016492645067 0.0016195875298 0.0015907068879 0.0015626038946 0.0015352597758 0.0015086572785 0.0014827800064 0.0014576079991 
0.0014331185152 0.00140929355 0.0013861066805 0.0013635362999 0.001341558772 0.001320152504 0.0012992958194 0.0012789672746 0.0012591490681 