# vtk DataFile Version 5.1
vtk output
ASCII
DATASET STRUCTURED_POINTS
DIMENSIONS 50 50 50
SPACING 0.002 0.002 0.002
ORIGIN 0.2174 -0.052672 0.02732
POINT_DATA 125000
FIELD FieldData 1
potential 1 125000 double
0.0046557280044 0.0047011370252 0.0047468707094 0.0047929230831 0.0048392911749 0.004885996566 0.004932985035 0.0049803757771 0.0050281413244 
0.0050762870492 0.0051248171721 0.0051737312287 0.0052230165859 0.0052726592077 0.0053226255002 0.0053728882864 0.0054234054372 0.0054741590206 
0.0055251035056 0.0055762237654 0.0056274921015 0.0056788959114 0.0057304401452 0.0057821188407 0.0058339370262 0.0058858934437 0.0059380255205 
0.0059903174036 0.0060427859737 0.0060954331005 0.0061482561643 0.006201255148 0.006254433574 0.0063077837058 0.0063612957715 0.0064149446691 
0.0064687336517 0.006522650014 0.0065766988851 0.0066308737442 0.006685162001 0.0067395408156 0.0067940373012 0.0068486267732 0.0069032931014 
0.0069579773189 0.0070126558192 0.0070672538801 0.0071217212261 0.0071760102926 0.0047278856912 0.0047744236087 0.0048213053294 0.0048684893077 
0.0049160506351 0.0049639671145 0.0050122415851 0.0050609041259 0.0051099521579 0.0051594060318 0.0052092630932 0.0052595218256 0.0053101731 
0.0053611886 0.0054125406647 0.0054641982269 0.0055161325457 0.0055683059068 0.0056206832421 0.0056732476932 0.0057259753366 0.005778848012 
0.0058318772335 0.0058850580169 0.0059384041698 0.0059919070932 0.0060455827376 0.0060994450822 0.0061535036854 0.0062077434291 0.0062621890262 
0.0063168348049 0.0063716596904 0.0064266616277 0.0064818347166 0.0065371606466 0.006592625702 0.0066482136766 0.0067039521935 0.00675978407 
0.0068157838898 0.0068719020464 0.0069281342125 0.0069844516701 0.0070408518566 0.0070972737227 0.0071536865048 0.0072100240526 0.0072662394587 
0.0073222700603 0.0047989174637 0.0048465840072 0.0048946238868 0.0049430218438 0.004991789896 0.0050409272601 0.0050904570528 0.0051403998919 
0.0051907535874 0.0052415321743 0.0052927322948 0.0053443513516 0.0053963752216 0.0054487754523 0.0055015292646 0.0055545927031 0.0056079507681 
0.005661551111 0.0057153813852 0.0057694118178 0.0058236178815 0.0058779954442 0.0059325350493 0.0059872545733 0.0060421366377 0.0060972054343 
0.0061524669394 0.0062079241236 0.006263603302 0.0063194979872 0.0063756000061 0.0064319106004 0.0064884131888 0.0065450954536 0.0066019580278 
0.0066589875465 0.0067161557699 0.006773473479 0.0068308828693 0.0068884787001 0.0069461854785 0.007004039687 0.0070620021316 0.0071200668805 
0.0071782012091 0.0072363683925 0.0072945270037 0.0073526015529 0.0074105270418 0.0074682934024 0.0048684483271 0.0049172502447 0.0049664395225 
0.0050160222536 0.0050660056834 0.0051163816683 0.0051671821118 0.0052184117628 0.0052700785896 0.0053221896069 0.005374743806 0.0054277342903 
0.0054811426331 0.0055349364116 0.0055890914708 0.0056435879344 0.0056983791727 0.0057534395139 0.0058087364577 0.0058642430793 0.0059199413599 
0.0059758288178 0.0060319094174 0.0060881668132 0.0061446264706 0.0062012871774 0.0062581545015 0.0063152538084 0.0063725832136 0.0064301408703 
0.0064879202089 0.0065459265639 0.0066041372708 0.0066625394852 0.0067211291969 0.006779872929 0.0068387237166 0.0068977753262 0.0069569734575 
0.0070162981875 0.0070757589402 0.0071353531894 0.0071950679242 0.0072548654617 0.0073147419041 0.007374620862 0.0074345179537 0.0074943520618 
0.007554067771 0.007613578987 0.004936086168 0.0049860339219 0.0050363895736 0.0050871641857 0.0051383599986 0.005189981404 0.0052420521922 
0.0052945790612 0.0053475680802 0.0054010195327 0.0054549390783 0.0055092947151 0.0055640978599 0.0056192984411 0.0056748834235 0.0057308130554 
0.00578705104 0.0058435702697 0.0059003422872 0.0059573419705 0.0060145595622 0.0060719779374 0.006129595001 0.006187421927 0.0062454591117 
0.006303733133 0.0063622484267 0.0064209973527 0.0064800058704 0.0065392590464 0.0065987562996 0.0066584844833 0.0067184245669 0.0067785761586 
0.0068389021844 0.0068993373772 0.0069599966266 0.0070207988482 0.0070817588099 0.0071428302504 0.00720405485 0.007265405121 0.0073268408599 
0.0073883987512 0.0074500229648 0.0075116875445 0.007573331967 0.0076349201108 0.0076963755748 0.0077576340926 0.0050016383622 0.0050527272606 
0.0051042526558 0.0051562199516 0.005208629872 0.0052615068571 0.0053148544087 0.005368681949 0.0054229952951 0.0054777921278 0.005533074453 
0.0055888255483 0.0056450294379 0.0057016470392 0.0057586578741 0.0058160311167 0.0058737288578 0.0059317208659 0.0059899808533 0.0060484936134 
0.0061072318198 0.0061661874414 0.006225364221 0.0062847713564 0.0063444254256 0.0064043239067 0.0064644896141 0.0065249254957 0.0065856330156 
0.0066466093389 0.0067078392797 0.0067693142968 0.0068310109908 0.0068929257577 0.0069549577368 0.00701722647 0.0070796566754 0.0071422359363 
0.0072049393391 0.0072677706419 0.0073307553615 0.0073938658805 0.0074570953067 0.0075204160439 0.0075838096242 0.0076472470215 0.0077106533668 
0.0077740007162 0.0078372140516 0.0079002384173 0.0050650147086 0.0051172556992 0.0051699547289 0.0052231183078 0.0052767550345 0.0053308856879 
0.0053855121292 0.0054406441592 0.0054962892412 0.0055524500423 0.0056091070879 0.0056662518184 0.0057238580233 0.0057819026819 0.0058403565297 
0.0058991831661 0.0059583551522 0.0060178324839 0.0060775999512 0.0061376229489 0.0061978955298 0.0062584046224 0.0063191579542 0.0063801728314 
0.0064414546629 0.006502999525 0.0065648407556 0.0066269741867 0.0066894009717 0.0067521172481 0.0068151161337 0.0068783693466 0.0069417706713 
0.0070054693545 0.0070693596315 0.0071334229847 0.0071976395142 0.0072619980807 0.0073264953754 0.007391125122 0.0074558945699 0.0075207800783 
0.0075857884168 0.0076508906423 0.0077160688951 0.007781280023 0.007846462962 0.0079115931952 0.0079765901989 0.0080414194997 0.0051263137449 
0.005179702621 0.0052335830564 0.0052879500292 0.0053428234538 0.0053982146767 0.0054541259758 0.0055105819705 0.0055675716774 0.0056250903311 
0.0056831318125 0.0057416725582 0.0058007111023 0.00586019429 0.0059201014404 0.0059803927689 0.0060410426669 0.0061020303729 0.0061633024502 
0.0062248543278 0.0062866740835 0.0063487553665 0.0064111177965 0.0064737578232 0.0065366886894 0.0065999135237 0.0066634568942 0.00672731885 
0.0067914940623 0.0068559729773 0.0069207507799 0.006985710433 0.0070509900881 0.0071164985258 0.0071822051293 0.0072480841253 0.0073141298782 
0.0073803059436 0.0074466052492 0.0075130515253 0.0075796246745 0.0076463410237 0.0077131571625 0.0077800700525 0.0078470467443 0.0079140568779 
0.0079810533037 0.0080479928503 0.0081147969654 0.0081814140365 0.0051857489986 0.0052403065853 0.0052953794652 0.0053509670324 0.0054070892452 
0.0054637538869 0.0055209714715 0.0055787491057 0.005637089005 0.0056959851647 0.0057554237099 0.0058153801901 0.0058758463996 0.0059367811961 
0.0059981550979 0.0060599316865 0.006122098134 0.006184586512 0.0062473905422 0.0063104963595 0.0063738978418 0.0064375940359 0.0065015784811 
0.0065658674593 0.0066304814422 0.0066954128294 0.0067606757453 0.006826280611 0.0068922246603 0.0069585207842 0.0070250161779 0.0070918745402 
0.0071589986337 0.0072263559185 0.0072939090827 0.0073616261178 0.0074294973399 0.0074975203697 0.0075656787307 0.0076339664423 0.0077023811332 
0.0077709161117 0.0078395746509 0.0079083118839 0.0079771394304 0.0080459893662 0.0081148121336 0.0081835850724 0.0082522261428 0.0083206868736 
0.0052436990515 0.005299455946 0.0053557308007 0.0054125584546 0.005469947777 0.005527898525 0.0055864378485 0.0056455653616 0.0057052660125 
0.0057655491224 0.0058263927288 0.0058877864106 0.0059497056203 0.0060121130071 0.0060749724723 0.0061382596458 0.0062019336678 0.0062659699185 
0.0063303401873 0.0063950395067 0.0064600507675 0.0065253916612 0.0065910403801 0.0066570149208 0.0067233263016 0.0067899930694 0.0068570109003 
0.0069244023805 0.0069920670191 0.007060164523 0.007128584747 0.0071973172723 0.0072663051375 0.007335528147 0.0074049577442 0.0074745596119 
0.0075443265202 0.0076142408454 0.007684268513 0.0077544434635 0.0078247461194 0.0078951591 0.0079656936666 0.0080363170501 0.0081070093284 
0.0081777222841 0.0082484307591 0.008319069041 0.0083896060024 0.0084599471015 0.0053006199369 0.0053575809279 0.0054151016817 0.0054731987997 
0.0055318762012 0.0055911577199 0.0056510356245 0.0057115272762 0.0057726247117 0.0058343234049 0.0058966010186 0.0059594482 0.0060228337492 
0.0060867327605 0.0061511090232 0.0062159442351 0.0062811731107 0.0063467767729 0.0064127543652 0.0064790731187 0.006545740291 0.0066127465256 
0.0066800892578 0.0067477785043 0.0068158413591 0.0068842813449 0.0069531021457 0.0070222226804 0.0070918220887 0.0071618028671 0.0072321034343 
0.0073027126527 0.0073736138958 0.0074447563513 0.007516104899 0.0075876414608 0.007659342333 0.0077311692525 0.0078031657898 0.007875287122 
0.0079475113972 0.0080198620258 0.0080923209345 0.0081648663726 0.0082374861332 0.0083101289656 0.0083827730696 0.0084553465299 0.0085278048524 
0.0086000881496 0.0053570521541 0.0054152728246 0.0054740619741 0.0055334654018 0.0055934730214 0.0056540971379 0.005715349163 0.0057772374099 
0.0058397557053 0.0059029023282 0.0059666454894 0.0060309768397 0.0060958736936 0.0061613009922 0.0062272278113 0.0062936168273 0.0063604317267 
0.0064276632016 0.0064952770158 0.0065632641322 0.0066316269182 0.0067003475534 0.0067694390964 0.006838905388 0.0069087710879 0.0069790332866 
0.0070496108865 0.0071207229356 0.0071922092846 0.0072640785386 0.0073363141784 0.0074088769324 0.0074817284881 0.0075548402109 0.0076281689371 
0.0077016939049 0.0077753861943 0.0078492346552 0.0079232198767 0.0079973328765 0.0080715585151 0.0081459053593 0.0082203583778 0.0082949147447 
0.0083695247698 0.0084441749427 0.0085188186189 0.0085933966577 0.0086678722304 0.0087421591803 0.0054136126199 0.0054731115767 0.0055332191954 
0.0055939560451 0.0056553367001 0.0057173520917 0.0057800234858 0.0058433458742 0.0059073150215 0.0059719283061 0.0060371752131 0.0061030283905 
0.0061694659781 0.0062364652183 0.0063039734214 0.0063719656626 0.0064404255159 0.0065093257451 0.0065786340244 0.0066483421185 0.0067184531193 
0.0067889532731 0.0068598517078 0.0069311600277 0.0070028849184 0.0070749401615 0.0071475526927 0.0072205683558 0.0072940054438 0.0073678469124 
0.0074420750346 0.0075166522575 0.0075915300002 0.0076666711332 0.0077420448737 0.0078176567843 0.0078934189768 0.0079693158262 0.0080453609372 
0.008121535252 0.0081978344963 0.0082742652005 0.0083507971831 0.008427434872 0.0085041334716 0.0085808683637 0.0086576079387 0.0087342689825 
0.0088108164756 0.00888718523 0.0054708588832 0.0055316878487 0.0055931580142 0.0056552799227 0.005718060428 0.0057815107493 0.0058456353934 
0.005910437622 0.0059759071006 0.0060420513645 0.0061088426981 0.0061762586053 0.0062442980449 0.0063128992554 0.0063820383224 0.0064517001253 
0.0065218522033 0.006592467993 0.0066635258306 0.0067350244 0.0068069513198 0.0068793037814 0.006952081628 0.0070251812127 0.0070988862361 
0.0071730036379 0.007247571716 0.0073225986687 0.0073980614291 0.0074739512977 0.0075502196263 0.0076268651441 0.0077038334859 0.0077810766185 
0.0078586275703 0.0079363351935 0.0080142178392 0.0080922697929 0.0081704691832 0.0082488079942 0.0083272739178 0.008405874204 0.00848459581 
0.0085634145467 0.0086422857029 0.0087212120012 0.0088001171291 0.0088789614926 0.0089576899392 0.0090362241248 0.0055293186548 0.0055915295919 
0.0056544136429 0.0057179750805 0.0057822166799 0.0058471577214 0.0059127928348 0.0059791255685 0.0060461502403 0.0061138653746 0.0061822545386 
0.0062513011598 0.0063209734449 0.0063912290031 0.0064620665297 0.0065334499798 0.0066053586882 0.0066777624181 0.0067506536459 0.006824004528 
0.006897820955 0.0069721073371 0.0070467226493 0.0071219655278 0.0071976509221 0.0072738047968 0.0073504392986 0.0074275480811 0.0075051132039 
0.0075831078008 0.007661527119 0.0077403290176 0.0078194683536 0.0078989465993 0.0079786525936 0.0080585727 0.0081386937044 0.0082189866369 
0.0082994433666 0.0083800539829 0.0084608053154 0.0085416911108 0.0086226947542 0.008703806146 0.0087849691639 0.0088661737936 0.0089473650588 
0.0090284784501 0.0091094940502 0.0091898980402 0.0055894950518 0.0056531515688 0.005717503205 0.0057825572318 0.0058483208819 0.005914805126 
0.005982006604 0.0060499224557 0.0061185598466 0.006187906646 0.0062579602904 0.0063286808459 0.0064000437515 0.006472037886 0.0065446421626 
0.0066178211453 0.0066915556849 0.006765824985 0.006840618203 0.0069159093745 0.0069916997877 0.0070678967229 0.0071446799532 0.0072219697023 
0.0072997539107 0.0073780378349 0.0074568247412 0.0075361084931 0.0076158617379 0.0076960786935 0.0077767179241 0.0078578137166 0.0079392090425 
0.0080209317166 0.0081029278682 0.0081851762364 0.0082676216573 0.0083502837451 0.0084330972394 0.0085160905176 0.0085992346395 0.008682518685 
0.0087659426812 0.0088494483295 0.0089330136277 0.0090165688766 0.0091001677756 0.0091833321861 0.0092667449593 0.0093499810784 0.0056518124306 
0.0057169669155 0.005782845741 0.0058494536564 0.0059167965482 0.0059848857267 0.0060537181423 0.0061232829305 0.0061935967202 0.0062646474549 
0.0063364071877 0.0064088712018 0.0064820113456 0.0065558214536 0.0066302693017 0.0067053226918 0.0067809638656 0.0068571728815 0.0069339410169 
0.0070112556724 0.0070890151466 0.0071674014382 0.0072463162361 0.0073257798855 0.0074057640536 0.0074862714018 0.0075673077987 0.0076488606101 
0.0077309156472 0.0078134409802 0.0078964686546 0.0079798586236 0.0080636270128 0.0081477275622 0.0082321086066 0.008316795993 0.0084017112392 
0.0084868431346 0.0085721693957 0.0086576737443 0.0087433446557 0.0088291507398 0.0089150892826 0.0090011043836 0.0090872126776 0.0091729511521 
0.0092591310329 0.0093452143364 0.0094311653937 0.0095169448607 0.0057166106895 0.0057833224278 0.0058507870894 0.0059190159303 0.0059880044104 
0.0060577598358 0.0061282788133 0.0061995686754 0.0062716263416 0.0063444527985 0.0064180034127 0.0064922917996 0.0065672987717 0.0066429943244 
0.0067193479723 0.006796351258 0.0068739833641 0.006952227703 0.0070310708561 0.0071104127256 0.0071904167981 0.0072710029376 0.0073521703572 
0.0074338844473 0.0075161712442 0.0075990142217 0.0076823967849 0.0077663347009 0.0078507963842 0.0079357884993 0.0080211922107 0.0081070425041 
0.0081932849825 0.008279919573 0.0083668388171 0.008454065654 0.0085415536357 0.0086292795992 0.0087172315023 0.0088053775153 0.0088936933265 
0.0089821633923 0.0090707796117 0.0091590905123 0.0092478922906 0.0093367586875 0.0094255770879 0.0095143264922 0.00960299313 0.0096914480673 
0.0057841695015 0.0058525035012 0.0059216195816 0.0059915246982 0.0060622259387 0.0061337070966 0.0062059983223 0.0062790803438 0.0063529640234 
0.0064276179078 0.0065030589002 0.0065792550763 0.0066561935919 0.0067338534241 0.0068122222796 0.006891272616 0.0069709884237 0.0070512681851 
0.0071322854525 0.0072139315124 0.0072961999657 0.0073790892335 0.0074625846283 0.0075466818494 0.0076313828645 0.0077166654019 0.0078025073699 
0.0078889482054 0.0079759591087 0.00806343148 0.0081514012704 0.0082398141676 0.0083286926597 0.0084179327601 0.0085075180754 0.008597425242 
0.008687649408 0.0087781183846 0.0088688256985 0.0089597436855 0.0090508398843 0.0091421377729 0.0092331806712 0.0093247214527 0.0094164024859 
0.0095080844886 0.0095997365416 0.009691332477 0.0097828207068 0.0098741306809 0.0058546977358 0.0059247146061 0.0059955457351 0.0060672125528 
0.006139672365 0.0062129651317 0.006287096561 0.0063620496896 0.0064378176434 0.006514408489 0.0065918078646 0.0066699987803 0.0067489591387 
0.0068286832305 0.0069091540081 0.0069903485382 0.0070721600797 0.0071547649527 0.0072380562011 0.0073220175333 0.0074066623319 0.0074919618807 
0.0075779023998 0.0076644744727 0.007751686276 0.0078395144663 0.0079279734558 0.0080170565897 0.0081066537205 0.0081967748095 0.0082874493175 
0.0083786034904 0.0084701966737 0.0085622342212 0.0086546165344 0.00874734378 0.0088403995099 0.0089337399905 0.0090273557007 0.009121219261 
0.0092149151113 0.0093091629182 0.0094035698528 0.0094981840178 0.0095928012487 0.0096874625875 0.0097821220776 0.0098767352677 0.0099712126036 
0.010065491489 0.005928359763 0.0060001305577 0.0060727467357 0.0061462044183 0.0062205232595 0.0062957038381 0.0063717371447 0.006448642793 
0.0065263914371 0.0066050070249 0.0066844461705 0.0067647176614 0.0068458004985 0.0069276870322 0.0070103585503 0.0070937022955 0.007177903197 
0.0072628560267 0.0073485257922 0.0074349235995 0.0075220476051 0.0076098395722 0.0076983453447 0.0077875314474 0.0078773711396 0.0079679524617 
0.0080590989087 0.0081508689276 0.0082432104902 0.0083361475924 0.0084296372048 0.0085236877916 0.0086181539364 0.0087130616694 0.0088084038727 
0.0089041064386 0.0090001676719 0.0090965408301 0.0091932348538 0.0092897796048 0.009386954837 0.0094844172163 0.0095819751355 0.009679652767 
0.0097774362462 0.0098752348628 0.0099730772167 0.010070831898 0.010168528006 0.010266041954 0.0060052573302 0.006078843466 0.0061533003536 
0.0062286508858 0.0063048937555 0.006382024855 0.0064600708475 0.0065389965454 0.0066188277078 0.0066995383899 0.0067811233416 0.0068635683134 
0.0069468770355 0.0070310253198 0.0071159133327 0.0072017048019 0.0072883188067 0.0073757151754 0.0074638879181 0.0075528169608 0.0076425284682 
0.0077329670436 0.0078241420609 0.0079160364775 0.008008722195 0.0081020278176 0.0081960093508 0.008290625312 0.0083859044666 0.0084818329016 
0.0085783005457 0.0086752769659 0.0087727633757 0.0088707434136 0.0089691687103 0.0090680064847 0.0091672357589 0.0092664273598 0.009366199336 
0.0094664158712 0.0095669435596 0.0096676151088 0.0097684469634 0.0098694619821 0.009970584911 0.010071740206 0.010172946997 0.010274089847 
0.010375165456 0.010476098251 0.0060855039677 0.0061609682172 0.0062373459087 0.0063146552234 0.0063929025089 0.0064720889454 0.0065521962388 
0.0066332490337 0.006715236577 0.0067981389367 0.0068819677737 0.0069667024414 0.0070524004904 0.0071387551395 0.0072261607315 0.007314415347 
0.0074035340156 0.0074934831682 0.0075842609187 0.0076758713932 0.0077682747812 0.0078614743124 0.0079554598481 0.0080502707066 0.0081457829105 
0.00824200361 0.008338960461 0.0084367202382 0.0085350138139 0.0086339434346 0.0087334963939 0.0088336246774 0.0089341875808 0.0090353772791 
0.0091370553695 0.0092391897569 0.0093413550996 0.0094443290403 0.0095476270386 0.0096513217273 0.0097552033534 0.0098593595081 0.0099637227371 
0.010068257495 0.010172867709 0.010277606334 0.010382360887 0.010487116817 0.010591783996 0.010696320793 0.0061691497251 0.0062465608548 
0.0063249479838 0.0064043119998 0.0064846406152 0.0065659479385 0.0066482294544 0.0067314979107 0.0068157261013 0.0069009237346 0.0069870886924 
0.0070742779988 0.0071621674786 0.0072511722237 0.0073410907158 0.007431926549 0.0075236789909 0.007616319442 0.0077098382008 0.0078042292181 
0.0078994735372 0.0079955757157 0.0080925382271 0.0081902646489 0.0082888005292 0.0083882016576 0.00848827292 0.00858905157 0.0086904382275 
0.0087925961344 0.0088954177295 0.0089988511571 0.0091028688885 0.0092074650271 0.0093121737783 0.0094178025198 0.0095238630027 0.0096303511531 
0.0097372679063 0.0098444999698 0.0099520782835 0.010059882175 0.010167882927 0.010276150538 0.01038455066 0.010493043866 0.010601576828 
0.010710123248 0.010818598128 0.010926949244 0.0062562518345 0.006335719683 0.0064161862396 0.0064976723096 0.0065801843525 0.00666370261 
0.0067482386828 0.006833800157 0.0069203740833 0.0070079681142 0.0070966334354 0.007186068486 0.0072766737598 0.0073682708835 0.0074608506909 
0.0075543944341 0.0076488971011 0.0077443441572 0.0078407411442 0.0079380493278 0.0080362692865 0.0081354247545 0.0082354269826 0.0083363648527 
0.0084379673353 0.0085404782504 0.0086437672368 0.0087478563764 0.0088526805498 0.0089582229904 0.0090644736574 0.0091713809041 0.0092789433863 
0.0093867293012 0.0094954327619 0.0096046845742 0.009714401086 0.0098246953903 0.009935378869 0.010046405447 0.010157732611 0.010269430493 
0.010381392442 0.010493571968 0.010605922873 0.010718382941 0.010830935771 0.010943462871 0.011055973319 0.011168368612 0.0063469260587 
0.0064285142797 0.0065111504076 0.0065948470009 0.0066796183426 0.0067654367346 0.0068523216677 0.0069402637151 0.0070292906412 0.0071194660408 
0.0072104450409 0.0073026593403 0.0073959152694 0.007490237982 0.0075855827085 0.007681982496 0.0077793687577 0.0078777497122 0.0079771250979 
0.008077465725 0.0081788692972 0.0082811538572 0.0083843278181 0.008488426054 0.0085934310166 0.0086992575752 0.0088059726843 0.008913508491 
0.0090218353201 0.00913093573 0.0092407968684 0.0093509778109 0.0094622411013 0.009574124934 0.009686597737 0.0097997140677 0.0099134274038 
0.010027508027 0.010142130973 0.010257183041 0.010372622503 0.010488403233 0.010604481687 0.010720821205 0.010837345727 0.010954021309 
0.011070797309 0.011187600364 0.011304380843 0.011421087899 0.0064412068686 0.0065250116277 0.0066099047856 0.0066959168596 0.0067830217904 
0.0068712319878 0.0069605706691 0.0070510237294 0.0071426743344 0.0072351873922 0.0073290054235 0.0074239315329 0.0075200158072 0.0076171713181 
0.0077154134197 0.0078147354646 0.007915130817 0.0080165887045 0.0081190589808 0.0082227738807 0.0083273071175 0.0084328480732 0.0085393872986 
0.0086469045806 0.0087553388696 0.008864695958 0.0089749614091 0.0090861153124 0.0091981218471 0.0093109631292 0.0094242457953 0.0095386185603 
0.0096537431549 0.0097695569951 0.0098860553998 0.010003227637 0.010120962267 0.01023925192 0.010358057645 0.010477311902 0.010597021064 
0.010717110444 0.010837537643 0.010958231539 0.011079176301 0.011200301081 0.01132154616 0.01144285238 0.011564167923 0.011685394867 
0.0065391793163 0.0066252656234 0.0067125056073 0.006800894665 0.0068904517823 0.0069811734195 0.0070730699527 0.00716620201 0.0072602476716 
0.0073556630222 0.0074522994621 0.007550085152 0.0076490303658 0.0077491507486 0.0078504209753 0.0079527843902 0.0080563484682 0.00816101286 
0.0082669256501 0.0083738471224 0.0084817547807 0.0085907646558 0.0087008252757 0.0088118825517 0.0089239168618 0.009036969365 0.009150965492 
0.0092659093445 0.0093814193932 0.0094982150423 0.0096157868597 0.0097341573445 0.009853376585 0.0099733339358 0.010093949183 0.01021540483 
0.010337444164 0.010460063255 0.010583276656 0.010707015275 0.010831229684 0.010955867508 0.01108087222 0.011206205901 0.011331819638 
0.011457643247 0.011583628921 0.011709710505 0.011835805388 0.011961886741 0.0066408893706 0.0067293782566 0.0068190569465 0.0069099408919 
0.0070020454754 0.0070953699305 0.0071899973973 0.0072855789223 0.0073826322175 0.0074808835895 0.0075803896302 0.0076811411618 0.0077831239559 
0.0078863039651 0.0079907461378 0.0080963917248 0.0082033791535 0.0083114078657 0.0084206663258 0.0085309777571 0.0086424757299 0.0087550680129 
0.0088687905105 0.0089835560045 0.009099452041 0.0092163439906 0.0093342525275 0.0094528480469 0.0095727235754 0.0096935381299 0.0098152583789 
0.0099378874868 0.01006128422 0.010185598148 0.010310758713 0.010436607969 0.010563174248 0.010690405168 0.010818263696 0.010946704112 
0.011075670654 0.011205105434 0.011334966179 0.011465183594 0.011595729207 0.011726537665 0.011857521808 0.011988659761 0.012119857291 
0.012251118068 0.0067464619906 0.0068374279946 0.0069296471318 0.0070231334811 0.0071178879686 0.0072139236661 0.0073111659732 0.0074097741422 
0.0075096785388 0.0076108975877 0.0077134328558 0.0078172548394 0.0079224153909 0.0080288598234 0.0081365995202 0.0082457761302 0.0083560651464 
0.0084676765664 0.008580412514 0.0086944517862 0.0088096435294 0.0089260392483 0.0090435567419 0.0091622335889 0.0092820482392 0.0094029626196 
0.0095246514689 0.0096477111563 0.009771803103 0.0098969090265 0.010022913003 0.010149980469 0.010277933863 0.010406879586 0.010536613775 
0.010667158206 0.010798491859 0.01093055591 0.011063306995 0.01119670186 0.011330699117 0.011465191446 0.011600179908 0.011735584248 
0.011871364084 0.012007429307 0.012143742118 0.012280295189 0.012416903006 0.012553555585 0.0068559546679 0.0069495096205 0.0070443748081 
0.0071405576081 0.0072381261037 0.0073368653976 0.0074370673558 0.0075386271431 0.0076415515747 0.0077458459102 0.00785149477 0.0079585861026 
0.008067035752 0.0081768671865 0.0082882263672 0.0084008266865 0.0085147856697 0.0086299877034 0.0087464950975 0.0088642833387 0.0089833747297 
0.0091036861457 0.0092251996311 0.0093479671678 0.0094715825139 0.0095967561028 0.0097230337217 0.0098504292727 0.00997895586 0.010108460768 
0.010239108871 0.010370799399 0.010503584197 0.010637241614 0.010771842641 0.010907339496 0.01104368218 0.011180836833 0.011318759101 
0.011457375751 0.011596633786 0.011736501467 0.011876910498 0.01201779171 0.012159139525 0.012300844528 0.012442861419 0.012585043923 
0.01272736677 0.012869746025 0.0069694101722 0.0070656456044 0.0071633160973 0.0072623354409 0.0073626063231 0.0074644028011 0.0075676062266 
0.0076722256617 0.0077782967098 0.0078858397241 0.0079948284115 0.0081053226216 0.0082173993209 0.0083307674174 0.0084455805734 0.0085618961513 
0.0086795454085 0.0087986058918 0.00891901515 0.0090408173856 0.009163920809 0.0092883433963 0.0094140755281 0.0095407594301 0.0096690880428 
0.0097986465857 0.0099293613948 0.010061230385 0.010194363008 0.010328698758 0.010464147104 0.010600791899 0.010738452052 0.010877146465 
0.011016862218 0.011157556928 0.011299182193 0.011441692194 0.011585047336 0.01172916276 0.011874022053 0.012019591386 0.012165731327 
0.012312398334 0.012459642053 0.012607225281 0.012755592852 0.012903803211 0.013052184694 0.013200690602 0.0070870159352 0.0071860552515 
0.0072865444493 0.0073883558775 0.0074917448159 0.0075965988261 0.0077029232293 0.0078107991727 0.007920168238 0.0080310594413 0.0081434874353 
0.0082576353635 0.0083731591432 0.0084902202815 0.0086088734387 0.0087289774571 0.0088505773467 0.0089736316544 0.0090981632962 0.0092241056033 
0.0093514336132 0.0094801658258 0.0096099566701 0.0097414816268 0.0098743178012 0.010008431593 0.010143773431 0.010280515358 0.01041851375 
0.01055776013 0.010698314203 0.010839987579 0.010982839103 0.011126821564 0.011271912019 0.011418082938 0.011565262348 0.011713434986 
0.01186253509 0.012012463357 0.01216322284 0.012314725768 0.012467337006 0.012620222873 0.012773607652 0.012927467403 0.013081735523 
0.013236328097 0.013391165763 0.01354605712 0.0072086689946 0.0073106229661 0.0074139587894 0.0075189418196 0.0076254863357 0.0077335175262 
0.0078431054292 0.0079542806295 0.0080670592959 0.0081814464601 0.0082976380696 0.0084152986021 0.0085345909586 0.0086555098779 0.008778108525 
0.0089022425486 0.0090279685296 0.0091552023877 0.0092840207593 0.0094142939499 0.0095460689658 0.0096789633336 0.0098137166914 0.0099498731809 
0.010087401221 0.010226234236 0.010366623918 0.01050834006 0.010651418835 0.010795830889 0.010941655218 0.011088691745 0.011237003239 
0.011386542154 0.011537284725 0.011689219984 0.011842263819 0.011996354973 0.012151452287 0.012307947957 0.012464926129 0.012622745783 
0.012781404537 0.012940702499 0.013100648776 0.013261130646 0.013422052925 0.013583407337 0.013745064247 0.013906922311 0.0073344142239 
0.0074392964583 0.0075458649994 0.0076540021518 0.007763737221 0.0078750852975 0.0079880617687 0.0081027038925 0.0082190326984 0.0083372550697 
0.0084570084828 0.0085784983574 0.0087017222374 0.0088267389439 0.0089533956607 0.0090817532091 0.0092117418207 0.0093434053601 0.0094766566816 
0.0096114724783 0.0097475314341 0.0098855265906 0.01002502551 0.010166004758 0.01030839265 0.010452422885 0.010597915314 0.01074485716 
0.010893249715 0.011043159636 0.011194420815 0.011347073323 0.011501097738 0.01165649113 0.011813171039 0.011971134192 0.012130726249 
0.012291065661 0.01245250324 0.012615027202 0.01277856567 0.012943116816 0.013108465074 0.013274557121 0.013441414505 0.013608945272 
0.013777019325 0.013945563347 0.014114430287 0.014283567966 0.0074642288859 0.0075722034506 0.0076819612029 0.007793380386 0.0079064669414 
0.0080212503523 0.0081377544652 0.0082561929258 0.0083762201088 0.0084980467963 0.008621701678 0.0087471899155 0.008874580711 0.0090037331954 
0.0091346844176 0.0092674199333 0.0094019282349 0.0095381377402 0.0096757123561 0.0098152822102 0.009956533825 0.010099413751 0.010243760507 
0.010389842302 0.010537556749 0.010686818392 0.010837652766 0.010990062132 0.011144100975 0.011299601722 0.011456640334 0.01161520586 
0.011775231715 0.011937149008 0.012100085904 0.012264359851 0.012429981157 0.012596866521 0.012764990031 0.012934313332 0.013104778429 
0.013276220279 0.01344868661 0.013622070406 0.013796255011 0.013971204088 0.014146810047 0.014322904723 0.014499423362 0.014676230826 
0.0075976981108 0.0077090496317 0.0078221306973 0.0079369535774 0.0080535258786 0.0081718693821 0.0082922256554 0.0084142225978 0.0085380889519 
0.0086638606342 0.0087915948756 0.0089213184783 0.0090529079299 0.0091864059709 0.0093218506325 0.0094591569821 0.0095983381091 0.009739002363 
0.0098817550847 0.010026306053 0.010172580307 0.010320416045 0.010470093622 0.010621528705 0.010774585672 0.010929341504 0.011085777968 
0.01124389752 0.011403764182 0.011565200686 0.011728730577 0.011893416132 0.01205973751 0.012227670622 0.012397114385 0.012568045199 
0.012740434463 0.012914209162 0.013089422178 0.013265850376 0.013443527718 0.013622400558 0.013802361125 0.013983314839 0.014165247123 
0.014348000762 0.014531471492 0.014715563022 0.014900123303 0.015084980124 0.0077348918032 0.0078496203101 0.0079661364228 0.0080844731049 
0.0082046480854 0.0083268856851 0.0084508427703 0.008576725112 0.0087045758035 0.0088344494988 0.0089663670232 0.0091004031705 0.0092364041538 
0.00937446856 0.0095145523608 0.0096566528729 0.0098003601187 0.0099462732126 0.01009411019 0.010243774173 0.010395142935 0.010548441874 
0.010703610551 0.010860505696 0.01101916072 0.011179648963 0.011341933192 0.011506520833 0.011672401965 0.011840061355 0.012009495597 