# vtk DataFile Version 5.1
vtk output
ASCII
DATASET STRUCTURED_POINTS
DIMENSIONS 50 50 50
SPACING 0.002 0.002 0.002
ORIGIN 0.2174 -0.052672 0.02732
POINT_DATA 125000
FIELD FieldData 1
potential 1 125000 double
0.00042709124539 0.00042524402965 0.00042341066189 0.00042158933721 0.00041977975691 0.00041798045168 0.00041619395986 0.00041441954492 0.00041265759049 
0.00041090689986 0.00040917165209 0.00040745011557 0.0004057418635 0.00040404635823 0.00040236285732 0.0004006900728 0.00039902575804 0.00039736914444 
0.00039571784321 0.00039407153236 0.00039242957059 0.00039079066353 0.00038915650707 0.00038752704127 0.0003859030681 0.00038428609577 0.00038267772119 
0.00038107879085 0.00037949117851 0.00037791621551 0.00037635497389 0.00037480823888 0.00037327689839 0.00037176128155 0.00037026154452 0.00036877785657 
0.00036731013808 0.00036585799138 0.00036442242572 0.00036300300651 0.00036160086585 0.00036021633805 0.00035884928315 0.0003574992181 0.00035616828315 
0.00035485385983 0.00035355564602 0.00035227214921 0.00035100175716 0.00034974367227 0.00042732356466 0.00042547387005 0.0004236389498 0.00042181513652 
0.00042000269386 0.00041820280571 0.00041641498842 0.00041463987016 0.00041287524187 0.000411126162 0.00040939058643 0.00040766887534 0.0004059601462 
0.00040426471154 0.00040258054975 0.00040090723288 0.00039924222213 0.000397584517 0.00039593237269 0.00039428474524 0.00039264158548 0.00039100156566 
0.00038936616111 0.00038773560202 0.00038611067714 0.00038449325959 0.00038288401022 0.00038128482425 0.00037969725043 0.00037812243285 0.00037656161397 
0.00037501543775 0.00037348466164 0.00037196941277 0.00037047102523 0.0003689876665 0.00036752011944 0.00036606828646 0.0003646325624 0.00036321317338 
0.00036181124677 0.00036042621399 0.00035905947144 0.00035771041754 0.00035637929815 0.00035506542663 0.00035376785109 0.00035248501229 0.00035121617483 
0.00034995898838 0.00042739240235 0.00042554015335 0.00042370256563 0.00042187704502 0.0004200647776 0.00041826404493 0.0004164761271 0.00041470130513 
0.00041293706072 0.00041118857801 0.00040945370999 0.0004077322106 0.00040602443696 0.00040432905297 0.00040264516153 0.00040097124721 0.0003993062819 
0.00039764797419 0.00039599520883 0.0003943471651 0.00039270266026 0.00039106267322 0.00038942694607 0.0003877960883 0.00038617142085 0.00038455381216 
0.00038294510636 0.00038134665588 0.00037976000537 0.0003781866984 0.00037662747388 0.00037508279202 0.00037355363306 0.0003720402031 0.00037054289448 
0.00036906107958 0.00036759428752 0.00036614341916 0.00036470800715 0.00036328865673 0.00036188670335 0.00036050282406 0.00035913617491 0.00035778704983 
0.00035645593167 0.00035514201618 0.00035384476342 0.00035256196261 0.00035129309562 0.00035003635652 0.00042725836878 0.00042540595242 0.00042356657286 
0.00042174175815 0.00041992974263 0.00041812922907 0.00041634225165 0.00041456837363 0.00041280580888 0.00041105880537 0.0004093257634 0.0004076060101 
0.00040589971632 0.00040420525762 0.00040252232593 0.00040084918409 0.0003991842069 0.00039752653121 0.00039587389935 0.00039422595815 0.00039258140519 
0.00039094159073 0.00038930617866 0.0003876760508 0.00038605212122 0.00038443568825 0.00038282851395 0.00038123213714 0.00037964792576 0.00037807678263 
0.00037652013783 0.00037497878862 0.00037345249279 0.00037194196984 0.00037044647331 0.00036896631906 0.00036750148447 0.00036605112362 0.00036461698734 
0.00036319874744 0.00036179737694 0.00036041356258 0.0003590469177 0.00035769737617 0.00035636589518 0.00035505169419 0.00035375421411 0.00035247149096 
0.00035120269738 0.00034994594645 0.00042689293997 0.00042504044625 0.00042320315511 0.00042137915742 0.00041956838768 0.00041777057888 0.00041598538881 
0.00041421213551 0.00041245437615 0.00041070998209 0.00040897966568 0.00040726258479 0.00040555871439 0.00040386661664 0.0004021855756 0.0004005139728 
0.00039885031004 0.00039719340863 0.00039554203312 0.00039389432006 0.00039225141124 0.00039061261188 0.00038897833373 0.00038734981068 0.00038572761385 
0.00038411358026 0.00038250918749 0.00038091557817 0.00037933478412 0.00037776762305 0.00037621482892 0.00037467698367 0.00037315488936 0.00037164756179 
0.0003701553409 0.00036867702818 0.00036721481368 0.0003657670048 0.00036433453312 0.00036291727594 0.00036151705545 0.00036013342566 0.00035876682319 
0.00035741764391 0.00035608578165 0.00035477116232 0.00035347291809 0.00035219024637 0.0003509208984 0.00034966395627 0.00042627611953 0.000424426849 
0.00042259195427 0.00042077061985 0.00041896271152 0.00041716839097 0.00041538680742 0.00041361732918 0.00041186337529 0.00041012327982 0.00040839680347 
0.00040668378697 0.00040498352043 0.0004032948365 0.00040161633044 0.00039994734256 0.00039828616692 0.00039663111825 0.00039498155074 0.00039333591246 
0.00039169512668 0.0003900583245 0.00038842636932 0.00038680019724 0.0003851809231 0.00038356956931 0.00038196897777 0.00038037999435 0.00037880369817 
0.00037724137145 0.00037569346784 0.00037416068038 0.00037264339196 0.0003711401164 0.0003696517835 0.00036817812831 0.00036671880501 0.00036527385705 
0.00036384318781 0.00036242766073 0.00036102847376 0.00035964552183 0.00035827933274 0.00035693035866 0.00035559843765 0.00035428367352 0.00035298499096 
0.00035170211605 0.00035043266536 0.00034917561269 0.00042540150364 0.00042355657398 0.00042172560448 0.00041990857177 0.00041810512545 0.00041631558994 
0.00041453727395 0.00041277509271 0.00041102656256 0.00040929192004 0.00040757079823 0.00040586299945 0.00040416719413 0.00040248288585 0.00040080869935 
0.00039914318948 0.00039748536289 0.00039583361535 0.00039418601689 0.0003925436426 0.00039090616322 0.0003892723999 0.000387643481 0.00038602058246 
0.00038440521444 0.0003827985097 0.00038120265047 0.00037961855028 0.00037804790502 0.00037649142918 0.00037494895421 0.00037342282074 0.00037191060647 
0.00037041337989 0.00036893027126 0.00036746115335 0.00036600558144 0.00036456416569 0.00036313621645 0.00036172284864 0.00036032517874 0.00035894314519 
0.00035757778837 0.00035622915081 0.00035489777964 0.00035358302338 0.00035228432194 0.00035100143609 0.00034973201994 0.00034847555806 0.00042427298891 
0.00042243336392 0.00042060836152 0.00041879746787 0.00041700046515 0.00041521733883 0.00041344517224 0.00041168996179 0.00040994844965 0.00040822051895 
0.00040650597864 0.00040480422185 0.00040311462026 0.00040143583297 0.00039976698065 0.00039810597542 0.00039645248315 0.00039480492608 0.00039316116955 
0.00039152245867 0.00038988882384 0.00038825861953 0.00038663393497 0.00038501569081 0.0003834052785 0.0003818039905 0.00038021377932 0.00037863579982 
0.00037707123272 0.00037552125105 0.0003739870742 0.00037246687229 0.0003709615636 0.00036947059301 0.0003679935226 0.00036652951053 0.00036507880821 
0.00036364125228 0.00036221664605 0.00036080621731 0.00035941052047 0.00035803040075 0.00035666628257 0.00035531839783 0.00035398754209 0.00035267346071 
0.00035137508787 0.00035009223808 0.00034882368292 0.00034756738519 0.00042290541661 0.00042107349466 0.00041925624057 0.00041745328695 0.00041566426712 
0.000413886944 0.00041212539944 0.00041037823935 0.00040864483864 0.00040692491812 0.00040521810974 0.00040352364297 0.00040184096318 0.00040016864918 
0.00039850578319 0.00039685050791 0.00039520243746 0.00039355910696 0.00039192042 0.00039028697698 0.00038865761872 0.00038703310765 0.00038541344918 
0.00038380062495 0.00038219608446 0.00038060114605 0.00037901648874 0.00037744552472 0.00037588839387 0.0003743465656 0.00037281978452 0.00037130708255 
0.00036980921177 0.00036832515881 0.00036685506164 0.0003653970638 0.00036395141167 0.00036251827466 0.00036109799972 0.00035969101951 0.000358297857 
0.00035691976888 0.000355557195 0.00035421083074 0.00035288115026 0.00035156803245 0.00035027025188 0.00034898820051 0.00034772033008 0.00034646507885 
0.00042132565091 0.00041950389137 0.00041769622055 0.00041590277752 0.00041412345272 0.00041235565545 0.00041060387667 0.0004088661805 0.00040714168333 
0.00040543061286 0.0004037323301 0.00040204607908 0.00040037127075 0.00039870655136 0.00039705034662 0.00039540150946 0.00039375897622 0.0003921214555 
0.00039048952031 0.00038886131924 0.00038723772371 0.00038561882859 0.00038400571436 0.00038239844493 0.00038080045549 0.00037921246202 0.00037763594079 
0.00037607271586 0.00037452363597 0.00037299026058 0.00037147100745 0.00036996669857 0.00036847645749 0.00036700008117 0.00036553647227 0.00036408501653 
0.00036264551577 0.00036121762043 0.00035980153337 0.00035839858842 0.00035700864326 0.00035563336074 0.00035427296639 0.00035292872794 0.0003516007708 
0.00035028888781 0.00034899276342 0.00034771166731 0.00034644512047 0.00034519127255 0.0004195676642 0.00041775721425 0.00041596143713 0.00041417946173 
0.00041240904339 0.00041065464685 0.00040891341274 0.00040718632357 0.00040547234321 0.000403771305 0.0004020823942 0.00040040495338 0.00039873837591 
0.00039708102059 0.00039543236032 0.00039379082449 0.00039215456477 0.00039052422986 0.00038889867268 0.00038727686279 0.00038565996036 0.00038404718011 
0.00038244043905 0.00038084125113 0.00037925078192 0.00037767060677 0.0003761021589 0.00037454704937 0.00037300733516 0.00037148175563 0.0003699711512 
0.00036847523265 0.00036699328733 0.00036552473713 0.00036406843198 0.00036262382938 0.00036119052563 0.00035976776637 0.00035835678361 0.0003569586315 
0.00035557266985 0.0003542007358 0.0003528433657 0.00035150142831 0.00035017555964 0.00034886564831 0.00034757137353 0.00034629202512 0.00034502675344 
0.00034377452722 0.00041767207141 0.0004158749203 0.00041409153921 0.00041232234817 0.00041056491229 0.00040882252386 0.00040709345987 0.00040537755818 
0.00040367474644 0.00040198428547 0.00040030551014 0.00039863704333 0.0003969793432 0.00039533076574 0.0003936899521 0.00039205510481 0.00039042677362 
0.0003888040757 0.00038718415448 0.00038556944108 0.00038395948304 0.0003823548096 0.0003807559122 0.00037916410524 0.00037758217375 0.00037601043506 
0.0003744505632 0.00037290440892 0.00037137323065 0.00036985652962 0.00036835490859 0.00036686757875 0.00036539415376 0.00036393345231 0.00036248455451 
0.00036104708642 0.00035962023968 0.00035820365594 0.00035679822622 0.00035540469108 0.0003540232136 0.00035265550827 0.00035130155286 0.00034996286473 
0.00034863967493 0.00034733222188 0.00034604017989 0.00034476289005 0.00034349957354 0.00034224899973 0.00041568201451 0.00041389873299 0.00041212934033 
0.00041037384371 0.00040862968688 0.00040690063206 0.00040518465123 0.00040348113428 0.00040178930479 0.0004001097246 0.00039844132327 0.00039678317901 
0.00039513460656 0.00039349456519 0.00039186167198 0.00039023433928 0.00038861307828 0.00038699746938 0.0003853857238 0.00038377850141 0.00038217653556 
0.00038057970505 0.00037898922802 0.00037740617021 0.000375832487 0.00037426993767 0.00037271919373 0.00037118269313 0.00036965995059 0.00036815216169 
0.00036665925479 0.00036518086613 0.00036371557128 0.00036226267968 0.00036082146027 0.00035939124655 0.00035797114241 0.00035656075179 0.00035516132348 
0.00035377286924 0.00035239630156 0.00035103280621 0.00034968312024 0.00034834794198 0.0003470281844 0.00034572360569 0.00034443440172 0.00034315948647 
0.00034189825842 0.00034064979255 0.00041363855654 0.00041187040167 0.00041011612666 0.00040837307028 0.00040664520805 0.00040492934703 0.00040322638842 
0.00040153576094 0.00039985636883 0.00039818815523 0.00039653045595 0.00039488212351 0.00039324300998 0.00039161054399 0.00038998500075 0.00038836652794 
0.0003867532442 0.000385144672 0.00038354084074 0.0003819415765 0.00038034758138 0.00037875934752 0.00037717764116 0.00037560372964 0.00037403935917 
0.00037248570141 0.00037094534511 0.00036941768271 0.00036790420602 0.00036640540685 0.00036492084044 0.00036345077739 0.0003619936595 0.00036054851796 
0.00035911499273 0.00035769172616 0.00035627821723 0.00035487443082 0.00035348102778 0.00035209821017 0.00035072700966 0.00034936844363 0.00034802320482 
0.00034669245012 0.00034537618536 0.00034407509576 0.00034278856956 0.00034151651347 0.00034025789183 0.00033901149362 0.00041158136096 0.00040982889216 
0.00040808948388 0.00040636158018 0.00040464832785 0.00040294744306 0.00040125817722 0.00039958006335 0.00039791283999 0.00039625600607 0.00039460804621 
0.00039296961326 0.00039133964073 0.00038971620171 0.00038809901838 0.00038648803614 0.00038488220084 0.00038328122094 0.00038168539666 0.00038009400797 
0.00037850831059 0.00037692895531 0.00037535642349 0.00037379184618 0.00037223689749 0.00037069301793 0.00036916215074 0.00036764382265 0.000366139548 
0.00036464923645 0.00036317347799 0.00036171139039 0.00036026199835 0.00035882441223 0.00035739798641 0.00035598147197 0.00035457488783 0.00035317768543 
0.00035179065488 0.00035041392222 0.00034904844256 0.00034769537479 0.00034635505434 0.00034502878191 0.00034371653541 0.00034241914026 0.00034113593122 
0.0003398664509 0.00033861038759 0.00033736636252 0.00040954521909 0.00040780862959 0.00040608319431 0.0004043725958 0.0004026740742 0.00040098735329 
0.00039931153169 0.00039764546106 0.00039599035181 0.00039434444972 0.00039270772109 0.00039107910581 0.0003894576082 0.00038784232191 0.00038623337165 
0.00038463012376 0.00038303200544 0.00038143855132 0.00037985037298 0.00037826708229 0.0003766900435 0.00037511932875 0.00037355597378 0.00037200114747 
0.00037045593218 0.00036892219143 0.00036739990021 0.00036589129139 0.00036439577182 0.00036291432279 0.0003614463821 0.00035999206683 0.00035855006689 
0.00035711978396 0.0003557000003 0.0003542905998 0.00035289064946 0.00035150030715 0.000350119335 0.00034874882416 0.00034738927932 0.00034604169144 
0.00034470709656 0.00034338554409 0.00034207756554 0.00034078408129 0.00033950455671 0.00033823806238 0.00033698457656 0.00033574310091 0.00040756042563 
0.0004058394396 0.00040412922813 0.00040243345078 0.0004007486344 0.00039907576015 0.00039741322235 0.00039576048982 0.00039411699601 0.0003924821896 
0.00039085519481 0.00038923598263 0.00038762272563 0.0003860160108 0.00038441506923 0.00038281904322 0.00038122850158 0.00037964246555 0.00037806206934 
0.0003764873107 0.00037491825628 0.00037335661381 0.00037180239941 0.00037025707633 0.0003687219439 0.00036719713007 0.00036568406293 0.00036418412234 
0.00036269776395 0.00036122455084 0.00035976442074 0.00035831739806 0.00035688263353 0.00035545903059 0.00035404579786 0.0003526428303 0.00035124930251 
0.00034986554352 0.00034849127195 0.00034712734033 0.00034577395635 0.00034443245353 0.00034310317085 0.00034178671171 0.00034048345703 0.00033919385904 
0.000337917859 0.00033665498558 0.00033540418949 0.00033416530169 0.00040564896223 0.00040394055415 0.00040224698933 0.00040056575966 0.0003988954769 
0.00039723576698 0.00039558585734 0.00039394517507 0.00039231313313 0.00039068883934 0.00038907162575 0.00038746179617 0.00038585668259 0.000384258022 
0.00038266439458 0.00038107578912 0.00037949244175 0.00037791378582 0.00037634114103 0.00037477419238 0.00037321364707 0.00037166077544 0.00037011609943 
0.00036858011348 0.00036705375065 0.00036553816729 0.00036403391113 0.00036254280815 0.0003610645137 0.0003595994331 0.00035814663428 0.00035670654692 
0.00035527828506 0.00035386152292 0.00035245471666 0.00035105820389 0.00034967103583 0.00034829345401 0.00034692577114 0.00034556813898 0.00034422103816 
0.00034288544444 0.00034156206304 0.00034025081118 0.00033895254005 0.00033766704076 0.0003363950646 0.00033513511968 0.00033388760162 0.00033265115775 
0.00040382967271 0.00040213523262 0.00040045542852 0.0003987872325 0.00039712983573 0.00039548267396 0.00039384475227 0.0003922155032 0.00039059419491 
0.00038897972397 0.0003873728544 0.00038577045404 0.00038417418989 0.00038258310863 0.00038099719341 0.00037941580319 0.00037783938184 0.00037626805799 
0.0003747030753 0.0003731438967 0.0003715918401 0.00037004728911 0.00036851104978 0.00036698425346 0.00036546657429 0.00036395981171 0.00036246440331 
0.00036098166132 0.00035951100783 0.00035805318538 0.00035660754243 0.00035517379374 0.00035375233631 0.00035234169132 0.0003509411244 0.00034955054704 
0.00034816958542 0.00034679855482 0.00034543711177 0.00034408565288 0.0003427445038 0.00034141505452 0.00034009709941 0.00033879141959 0.00033749804689 
0.00033621732794 0.00033494896946 0.00033369268196 0.00033244802204 0.00033121439156 0.00040211183676 0.00040043238058 0.00039876493213 0.00039710901892 
0.0003954634094 0.00039382775483 0.00039220121606 0.00039058257685 0.00038897099626 0.00038736688242 0.00038576811742 0.00038417432715 0.00038258582753 
0.00038100232091 0.00037942352416 0.00037784918028 0.00037627986855 0.00037471607868 0.00037315833821 0.0003716070076 0.00037006276323 0.00036852625539 
0.00036699869283 0.00036547991437 0.00036397082587 0.00036247209033 0.00036098520442 0.00035951003288 0.00035804668313 0.00035659547618 0.00035515709577 
0.00035372996507 0.00035231430462 0.00035090941798 0.00034951481085 0.00034813021457 0.0003467553212 0.0003453901345 0.00034403486142 0.00034268965783 
0.00034135472249 0.00034003103219 0.00033871880425 0.00033741847119 0.00033613000007 0.00033485367333 0.00033358933408 0.00033233680985 0.00033109630456 
0.00032986556242 0.00040050798747 0.00039883965165 0.00039718320762 0.00039553808289 0.00039390324101 0.00039227812503 0.00039066128897 0.00038905267228 
0.00038745111292 0.00038585562318 0.00038426436976 0.00038267914877 0.00038109844461 0.00037952212708 0.00037795036651 0.0003763829612 0.00037482084211 
0.00037326414924 0.0003717135856 0.00037016975686 0.00036863328939 0.00036710474406 0.0003655846493 0.0003640738555 0.00036257273863 0.00036108226001 
0.0003596027659 0.00035813485196 0.00035667820612 0.00035523371675 0.00035380104068 0.00035238027797 0.00035097048786 0.00034957131451 0.00034818240049 
0.00034680347688 0.00034543415138 0.00034407494653 0.00034272565697 0.00034138635396 0.00034005726861 0.00033873935659 0.00033743280554 0.00033613754324 
0.00033485482896 0.000333582929 0.00033232275914 0.00033107393272 0.00032983610284 0.00032860845959 0.00039902059826 0.00039736156288 0.00039571471093 
0.00039407903115 0.00039245376112 0.00039083762138 0.00038922958513 0.00038763036528 0.00038603678054 0.00038444880775 0.00038286668986 0.00038128852677 
0.00037971520567 0.00037814604119 0.00037658114363 0.00037502066717 0.00037346546962 0.00037191608663 0.00037037251977 0.00036883574258 0.00036730703699 
0.00036578567949 0.00036427281156 0.00036276949616 0.0003612760755 0.00035979291536 0.00035832049364 0.0003568591321 0.00035540937426 0.00035397103227 
0.00035254423108 0.00035112866481 0.00034972446675 0.00034833072548 0.00034694739546 0.00034557356315 0.00034421021333 0.00034285648502 0.00034151276437 
0.00034017921609 0.00033885721147 0.00033754490612 0.00033624360936 0.00033495335467 0.0003336743044 0.00033240692754 0.00033115085197 0.00032990567754 
0.00032867122927 0.00032744738104 0.00039765026955 0.00039599914325 0.00039436061866 0.00039273285888 0.00039111559705 0.00038950776526 0.00038790878891 
0.00038631652372 0.00038473100461 0.00038315017741 0.00038157534002 0.00038000455256 0.00037843816943 0.00037687578601 0.00037531799086 0.0003737643223 
0.00037221576004 0.00037067304283 0.00036913644629 0.00036760669046 0.0003660848404 0.00036457061462 0.0003630650998 0.00036156874977 0.00036008229973 
0.00035860569695 0.00035714007196 0.00035568529778 0.00035424179436 0.0003528091476 0.0003513879039 0.00034997775437 0.00034857855743 0.00034718970021 
0.00034581211092 0.00034444344234 0.00034308502589 0.00034173692464 0.00034039877534 0.00033907088151 0.00033775330603 0.00033644644903 0.000335150203 
0.00033386521924 0.00033259112875 0.00033132796283 0.00033007585352 0.00032883487267 0.000327604202 0.00032638393721 0.00039639747579 0.00039475285332 
0.00039312097655 0.00039150003731 0.00038988921657 0.00038828848785 0.00038669588884 0.00038511078848 0.00038353078108 0.00038195794769 0.00038038972998 
0.00037882594703 0.00037726596619 0.00037571029996 0.00037415903694 0.00037261225123 0.00037107045578 0.00036953439924 0.0003680044807 0.00036648215732 
0.00036496666415 0.0003634592678 0.00036196037885 0.00036047075164 0.0003589906286 0.00035752075419 0.00035606137039 0.00035461271072 0.00035317539935 
0.00035174830671 0.00035033249374 0.00034892724905 0.0003475326596 0.00034614908536 0.00034477516267 0.00034341138641 0.00034205809098 0.00034071489249 
0.00033938214452 0.0003380594855 0.00033674711539 0.00033544526638 0.00033415393782 0.00033287341801 0.000331604051 0.00033034549758 0.00032909780785 
0.00032786083954 0.00032663417296 0.00032541752223 0.00039526256949 0.00039362295197 0.00039199588935 0.00039038009069 0.00038877557527 0.00038717954697 
0.00038559212108 0.00038401174766 0.00038243835157 0.00038087087428 0.00037930878206 0.00037775103768 0.00037619744173 0.00037464841019 0.00037310370354 
0.00037156319671 0.00037002805848 0.0003684986504 0.00036697591792 0.00036545980528 0.0003639511079 0.0003624511607 0.00036095870768 0.00035947552543 
0.00035800165907 0.00035653760222 0.00035508395398 0.00035364105353 0.0003522085554 0.00035078624683 0.00034937529116 0.00034797486736 0.00034658502009 
0.00034520541943 0.00034383654059 0.00034247747225 0.0003411287038 0.00033979053013 0.00033846278553 0.00033714480061 0.00033583727462 0.00033454050034 
0.00033325436587 0.00033197902716 0.00033071426324 0.00032946018266 0.00032821715505 0.00032698402099 0.00032576155463 0.00032454887368 0.00039424410598 
0.0003926078016 0.00039098404109 0.0003893729051 0.0003877714486 0.00038617943674 0.00038459662107 0.00038302017881 0.00038145169617 0.00037988963297 
0.00037833354708 0.00037678177153 0.00037523397577 0.00037369116039 0.00037215269266 0.00037061859771 0.00036909016312 0.000367567846 0.00036605115629 
0.00036454136263 0.00036303920922 0.0003615446205 0.00036005867289 0.00035858173771 0.00035711387152 0.00035565542444 0.00035420715648 0.00035276948357 
0.00035134176461 0.00034992456874 0.00034851802928 0.00034712175432 0.00034573626088 0.00034436101286 0.00034299650181 0.00034164194056 0.00034029777782 
0.00033896400183 0.00033764056889 0.00033632740112 0.00033502452897 0.0003337324563 0.00033245106581 0.00033118029992 0.00032992038041 0.00032867085439 
0.00032743218657 0.00032620342058 0.00032498495842 0.00032377669875 0.00039334085582 0.0003917065418 0.00039008561853 0.00038847601417 0.00038687690407 
0.00038528801522 0.00038370744803 0.00038213542453 0.00038057081185 0.00037901278408 0.00037746082525 0.00037591392073 0.00037437207286 0.00037283505946 
0.00037130246144 0.00036977460287 0.00036825250435 0.0003667369854 0.0003652268447 0.00036372358736 0.00036222733485 0.00036073935675 0.0003592596003 
0.0003577883794 0.00035632614826 0.00035487322479 0.00035342998767 0.00035199692013 0.00035057417866 0.00034916146577 0.00034775881851 0.00034636671662 
0.00034498524917 0.00034361423763 0.00034225328037 0.00034090328001 0.00033956337295 0.00033823386302 0.00033691468105 0.0003356059846 0.00033430773069 
0.00033302018348 0.00033174351042 0.00033047703302 0.00032922139658 0.00032797655384 0.00032674186448 0.00032551768171 0.00032430381548 0.00032309956478 
0.00039255079279 0.00039091776449 0.00038929636611 0.00038768741637 0.00038608969848 0.00038450174106 0.00038292414248 0.00038135446077 0.00037979262927 
0.00037823828655 0.00037669040464 0.00037514838201 0.00037361136935 0.00037207978051 0.00037055317236 0.00036903162156 0.00036751632969 0.00036600652926 
0.00036450315236 0.00036300649541 0.00036151629429 0.00036003443941 0.00035856067865 0.00035709507152 0.00035563814577 0.00035419048751 0.00035275189946 
0.00035132331799 0.00034990493354 0.00034849620482 0.00034709765761 0.00034570937034 0.00034433154259 0.00034296412871 0.00034160696745 0.0003402602258 
0.0003389247336 0.00033759912838 0.00033628399503 0.00033497976214 0.00033368592451 0.00033240270314 0.00033113014046 0.00032986819664 0.00032861708342 
0.00032737632774 0.00032614643952 0.00032492682621 0.00032371734588 0.00032251795597 0.00039187374649 0.00039023934056 0.00038861739291 0.00038700792834 
0.00038541047483 0.00038382309525 0.00038224611534 0.00038067808648 0.00037911834689 0.00037756656921 0.00037602195422 0.00037448408956 0.00037295195042 
0.00037142532385 0.00036990432138 0.00036838961772 0.00036688011297 0.00036537692418 0.00036387980953 0.00036238918425 0.00036090572663 0.00035942971676 
0.00035796152493 0.00035650146101 0.00035504976993 0.00035360694937 0.0003521730869 0.00035074853099 0.00034933375925 0.00034792883843 0.0003465338474 
0.00034514916364 0.00034377440451 0.00034241042466 0.00034105662526 0.00033971350788 0.00033838152839 0.00033705972333 0.00033574864681 0.00033444843927 
0.00033315865932 0.00033187969543 0.00033061139512 0.00032935377904 0.00032810704734 0.00032687107108 0.00032564558158 0.0003244306399 0.00032322589258 
0.00032203144252 0.00039130788706 0.00038967167899 0.00038804811714 0.000386437553 0.00038483801857 0.0003832506766 0.00038167357017 0.00038010625687 
0.00037854776037 0.00037699801865 0.00037545618578 0.00037392166779 0.00037239362124 0.00037087198805 0.00036935700005 0.00036784784449 0.00036634476986 
0.00036484777053 0.00036335648794 0.00036187280588 0.00036039546871 0.00035892543062 0.00035746262349 0.00035600776176 0.00035456083737 0.00035312239232 
0.00035169265278 0.0003502719876 0.00034886086525 0.0003474590913 0.00034606730012 0.00034468542497 0.00034331389067 0.00034195288193 0.00034060241688 
0.00033926222808 0.0003379333373 0.00033661546594 0.00033530808706 0.00033401159638 0.00033272583687 0.00033145083668 0.00033018696879 0.00032893361801 
0.00032769143189 0.00032646001001 0.00032523887468 0.00032402881622 0.00032282917926 0.00032163948142 0.00039085361393 0.00038921454922 0.00038758878064 
0.00038597493712 0.00038437426682 0.00038278535926 0.00038120730226 0.00037963948461 0.00037808160112 0.00037653302737 0.00037499249907 0.00037346097916 
0.0003719368923 0.00037042051963 0.00036891002189 0.00036740683001 0.00036590977455 0.00036441883813 0.00036293424663 0.00036145647052 0.00035998500161 
0.00035852078235 0.00035706327298 0.00035561312529 0.00035417062316 0.00035273652874 0.00035131066243 0.00034989334961 0.00034848537551 0.00034708622023 
0.00034569712611 0.00034431791962 0.00034294933509 0.00034159085659 0.00034024301984 0.00033890631874 0.00033758013897 0.00033626522834 0.00033496146255 
0.0003336685761 0.00033238673668 0.00033111589744 0.0003298557345 0.00032860683858 0.00032736928286 0.00032614329774 0.00032492750666 0.00032372258451 
0.000322528512 0.00032134392735 0.00039051007784 0.00038886714868 0.00038723787298 0.00038562116124 0.00038401755962 0.00038242663727 0.00038084649318 
0.00037927777235 0.0003777195227 0.00037617173934 0.00037463356989 0.00037310461636 0.00037158449381 0.00037007166864 0.00036856636851 0.00036706848228 
0.00036557729753 0.00036409262486 0.00036261455567 0.00036114246897 0.00035967664541 0.00035821761759 0.00035676528176 0.00035531970586 0.00035388171921 
0.00035245139726 0.00035102853304 0.00034961383737 0.00034820849478 0.00034681207701 0.00034542511429 0.0003440482807 0.00034268182196 0.00034132552538 
0.00033998023331 0.00033864624902 0.00033732297416 0.0003360110573 0.00033471022986 0.00033342062123 0.00033214261599 0.00033087568736 0.00032962019908 
0.0003283757679 0.00032714276441 0.00032592142542 0.00032471072324 0.00032351097032 0.00032232149637 0.00032114269321 0.00039027706334 0.00038862989507 
0.00038699581013 0.00038537622564 0.00038376932852 0.00038217540068 0.00038059287547 0.00037902263372 0.00037746368907 0.0003759159952 0.00037437881645 
0.00037285167829 0.00037133479353 0.00036982584025 0.00036832518237 0.00036683270085 0.0003653471292 0.00036386852174 0.0003623963561 0.00036093033725 
0.00035946978874 0.00035801582736 0.00035656799397 0.00035512691383 0.00035369244902 0.00035226500076 0.0003508449804 0.00034943292015 0.00034802953338 
0.00034663513689 0.00034525002782 0.00034387485719 0.00034251026542 0.00034115604971 0.00033981245158 0.00033848097519 0.00033716041437 0.0003358515191 
0.00033455375202 0.00033326779954 0.00033199337247 0.00033073025676 0.00032947865393 0.00032823905725 0.00032701098562 0.00032579437378 0.00032458890739 
0.00032339456567 0.00032221095374 0.00032103784537 0.0003901524112 0.00038849984878 0.00038686207016 0.00038523830728 0.00038362812147 0.00038203076991 
0.00038044529011 0.00037887261183 0.00037731225641 0.00037576394742 0.00037422739074 0.00037270256871 0.00037118774088 0.00036968225214 0.00036818630166 
0.00036669866192 0.00036521917566 0.00036374592395 0.00036227959814 0.00036081905677 0.00035936390084 0.00035791414829 0.00035647097221 0.00035503347642 
0.00035360221905 0.00035217715942 0.00035075966063 0.00034934934274 0.00034794758138 0.00034655394863 0.00034517018715 0.00034379666064 0.00034243345834 
0.00034108074237 0.0003397396881 0.00033841020223 0.0003370921261 0.00033578566199 0.00033449097561 0.00033320749511 0.00033193686249 0.00033067828869 
0.00032943092377 0.0003281954377 0.00032697218684 0.00032576056344 0.0003245606288 0.000323372007 0.00032219449204 0.00032102762263 0.00039013280814 
0.00038847611676 0.00038683352414 0.00038520542375 0.00038359104974 0.0003819898149 0.00038040130018 0.0003788258118 0.00037726355997 0.0003757144154 
0.00037417853452 0.00037265447297 0.00037114182523 0.00036963978309 0.0003681478454 0.00036666536279 0.00036519066748 0.00036372321983 0.00036226214334 
0.00036080669253 0.00035935624827 0.00035791144288 0.00035647185879 0.000355037429 0.00035360815714 0.00035218538163 0.00035076951686 0.00034936068632 
0.00034795969568 0.0003465673172 0.00034518463959 0.00034381191593 0.00034244968828 0.00034109855148 0.00033975915087 0.00033843117532 0.00033711500493 
0.00033581084545 0.0003345193821 0.0003332392568 0.00033197199999 0.0003307166525 0.00032947354009 0.00032824263056 0.00032702418907 0.00032581788035 