# vtk DataFile Version 5.1
vtk output
ASCII
DATASET STRUCTURED_POINTS
DIMENSIONS 10 10 10
SPACING 0.01 0.01 0.01
ORIGIN 0.2214 -0.048672 0.03132
POINT_DATA 1000
FIELD FieldData 1
potential 1 1000 double
0.00097721794416 0.00094488908322 0.00091426032935 0.0008851524151 0.0008572324052 0.00083035566397 0.00080468447272 0.00078045543961 0.00075767306873 
0.00073607273665 0.0010001087866 0.00096647105371 0.00093457900003 0.00090425875741 0.00087519125252 0.00084728737863 0.00082072951978 0.00079569315472 
0.00077209792361 0.00074966152408 0.0010155169759 0.00098079364085 0.0009478673945 0.00091653489554 0.00088658012206 0.00085794547388 0.00083074829932 
0.00080506569963 0.00078077947864 0.00075764422196 0.0010288754928 0.0009931189294 0.00095920451118 0.00092694772647 0.000896217717 0.00086695613699 
0.0008391630211 0.00081283287668 0.00078787911462 0.00076413847236 0.0010456089276 0.0010086882837 0.00097367220448 0.00094043457014 0.00090884200771 
0.00087881382122 0.00085028164899 0.00082319892114 0.00079749903507 0.00077306973631 0.0010679244955 0.0010296349444 0.00099336150383 0.00095898285776 
0.00092636201698 0.00089535649855 0.00086588001793 0.00083787724343 0.00081129567211 0.00078604497946 0.0010962425674 0.0010563503729 0.0010186674988 
0.00098299232998 0.00094915434798 0.00091698017117 0.00088635831812 0.00085726131918 0.00082963670812 0.00080340618192 0.0011299748829 0.0010882752276 
0.0010490012641 0.0010119177101 0.00097671744174 0.00094318444737 0.00091126426579 0.00088093984931 0.00085214216912 0.00082479150614 0.0011658031629 
0.0011221868357 0.0010812409977 0.0010426772194 0.0010060484096 0.00097109632127 0.0009378301412 0.00090625313286 0.00087625863901 0.00084775150591 
0.0011965578636 0.0011512316054 0.0011087323936 0.0010687514734 0.0010307698841 0.00099452653512 0.00096006884589 0.00092739743105 0.00089638283361 
0.00086689861418 0.0012532635321 0.0012119741328 0.0011726892561 0.0011352692865 0.0010995472098 0.0010654266644 0.0010328933754 0.0010019595427 
0.00097256995664 0.00094457422163 0.0012821985388 0.001239211711 0.0011983366996 0.0011594320067 0.0011223270392 0.0010869260663 0.0010532137706 
0.0010211792827 0.000990751024 0.00096177199577 0.0013083729632 0.00126373421 0.001221344665 0.00118101826 0.0011426098494 0.0011060222658 
0.0010712148275 0.0010381462758 0.0010067217508 0.00097679724903 0.0013337128649 0.0012874344122 0.0012435326784 0.0012018072521 0.0011621261495 
0.0011243797103 0.0010884914027 0.0010543887012 0.0010219777026 0.00099113519975 0.0013606579031 0.0013126857823 0.0012671984348 0.0012240385951 
0.0011830354693 0.0011440711756 0.0011070381082 0.0010718455474 0.0010383949652 0.0010065741692 0.0013907615326 0.0013409648731 0.0012937929445 
0.0012490837191 0.0012066652864 0.0011663744366 0.0011280900655 0.0010917091341 0.0010571354997 0.0010242601185 0.0014243754446 0.0013726092898 
0.0013236510498 0.00127728844 0.0012333304338 0.0011916032331 0.0011519542477 0.0011142842611 0.0010784931971 0.001044472947 0.0014607112071 
0.0014068681805 0.0013560205266 0.0013079340827 0.0012623530395 0.0012190930565 0.0011779965295 0.0011389655367 0.0011018905544 0.00106666173 
0.0014976122012 0.0014416635596 0.0013888897392 0.001339038547 0.0012918091195 0.0012469891207 0.0012044361146 0.0011640347698 0.0011256744115 
0.0010892311373 0.0015320250501 0.0014740514574 0.0014194084024 0.0013678331912 0.0013190044775 0.0012726815814 0.0012287348182 0.0011870465517 
0.0011474814126 0.0011099036358 0.0015300244074 0.0014797821495 0.0014319394492 0.0013863509916 0.0013428838287 0.0013014260115 0.0012618967819 
0.0012242264985 0.0011883063399 0.0011540660071 0.0015652863473 0.0015129656499 0.0014631883001 0.001415804868 0.0013706686134 0.0013276561737 
0.001286681104 0.0012476588333 0.0012104949458 0.0011750524622 0.0015997559506 0.0015453435804 0.0014936291219 0.0014444526279 0.0013976548389 
0.0013531057947 0.0013107011187 0.0012703406888 0.001231917361 0.0011952937491 0.0016341880236 0.0015776469628 0.0015239891296 0.0014730055202 
0.0014245377744 0.0013784435774 0.0013345984606 0.0012928874741 0.0012531962075 0.0012153975975 0.0016696892827 0.0016109806199 0.0015553057643 
0.001502479362 0.0014523008916 0.0014046197368 0.0013592932738 0.0013161922892 0.0012751928416 0.0012361675829 0.0017070779169 0.0016461138227 
0.0015883513461 0.0015335953735 0.0014816472569 0.0014323132688 0.0013854403792 0.0013408889469 0.0012985278989 0.0012582251963 0.0017465221705 
0.0016832037374 0.0016232856675 0.0015665305431 0.0015127248995 0.0014616731328 0.0014131883951 0.0013671248072 0.0013233445834 0.0012817129577 
0.0017874660693 0.0017217244314 0.0016595839251 0.0016007851481 0.0015450698003 0.0014922407231 0.0014420928464 0.0013944750688 0.00134923868 
0.0013062404591 0.0018287224317 0.0017605375838 0.0016961428155 0.0016352688345 0.001577628359 0.0015229999084 0.0014711816625 0.0014220015344 
0.0013753053851 0.0013309385758 0.0018689041157 0.0017983006764 0.0017316714174 0.0016687308814 0.001609187895 0.0015527811154 0.0014993140253 
0.0014486067356 0.0014004857059 0.0013547864567 0.0018050598687 0.0017460084837 0.0016897606122 0.0016361560063 0.0015850529334 0.0015363183767 
0.0014898370941 0.0014455003134 0.0014031763777 0.0013627884013 0.0018466541146 0.0017851444129 0.0017266220896 0.0016709066023 0.0016178411774 
0.0015672803439 0.0015190950945 0.0014731707928 0.001429377927 0.0013875848501 0.0018883401455 0.0018243469551 0.0017635138885 0.0017056595183 
0.0016506098281 0.0015982044839 0.0015483021473 0.0015007694558 0.001455480109 0.0014122847064 0.0019304556157 0.0018639098258 0.0018007388056 
0.0017407097677 0.0016836461195 0.0016293695176 0.0015777252074 0.0015285664514 0.0014817560529 0.0014371529025 0.0019734710844 0.0019043327622 
0.0018387511546 0.0017765130821 0.0017173892764 0.0016612027333 0.0016077788862 0.0015569577551 0.0015085932613 0.0014625351708 0.002017769286 
0.0019459663623 0.001877914693 0.001813391123 0.0017521669439 0.0016940210609 0.0016387703816 0.0015862450558 0.0015362843022 0.0014887355704 
0.002063394356 0.0019888443919 0.0019182746315 0.0018514121655 0.0017880188207 0.0017278692638 0.0016707475973 0.0016164739542 0.0015648814361 
0.0015158059258 0.00210999518 0.0020326487753 0.0019595072115 0.0018902648183 0.001824666232 0.0017624683458 0.0017034398824 0.0016473886101 
0.0015941361446 0.0015435084984 0.0021569372541 0.0020767704136 0.0020010191945 0.0019293808242 0.0018615536286 0.0017972844169 0.001736337125 
0.001678496569 0.0016235763347 0.0015713903922 0.0022035558273 0.0021205640362 0.0020422016614 0.0019681524829 0.0018981016421 0.0018317634442 
0.0017688985778 0.0017092825321 0.0016527062261 0.0015989747169 0.0020770050198 0.0020093540904 0.0019448983441 0.0018834598089 0.0018248779247 
0.0017690013706 0.0017156899264 0.001664810017 0.0016162126815 0.001569809606 0.0021248078996 0.0020543447793 0.0019872842633 0.0019234275999 
0.001862598799 0.0018046292987 0.0017493651821 0.0016966657378 0.001646384369 0.0015983723547 0.0021731612974 0.0020998392732 0.0020301200795 
0.0019637996565 0.0019006828007 0.001840585949 0.0017833399401 0.0017287902432 0.0016767822855 0.0016271608624 0.0022222029677 0.0021459394392 
0.0020735206062 0.0020046892198 0.0019392421927 0.0018769799311 0.0018177183284 0.0017612855322 0.0017075278282 0.0016562667517 0.0022721250089 
0.0021928616367 0.0021176654422 0.0020462805702 0.0019784592773 0.001913990631 0.001852675706 0.0017943298236 0.001738783343 0.0016858687908 
0.0023230381436 0.0022407359685 0.0021627077675 0.0020887017669 0.0020184649277 0.0019517459531 0.0018883379531 0.0018280406914 0.0017706747263 
0.0017160609979 0.0023749625996 0.0022895337337 0.0022086296738 0.0021319543431 0.0020592488215 0.0019902397383 0.0019247008303 0.0018624193396 
0.00180320109 0.0017468582453 0.0024276608551 0.0023390545291 0.0022552287769 0.0021758479608 0.0021006289369 0.0020293004097 0.0019616014789 
0.0018973086321 0.0018362159997 0.0017781243268 0.0024807822564 0.0023889699414 0.0023021797852 0.0022200733559 0.0021423217361 0.002068642376 
0.0019987673708 0.00193244975 0.001869470291 0.0018096182505 0.0025339815328 0.0024389439572 0.0023491743961 0.0022643170979 0.0021840289286 
0.0021079890638 0.0020359282987 0.0019675846218 0.0019027182714 0.001841108317 0.0023449731147 0.0022689743581 0.0021965429541 0.0021274844228 
0.0020616194437 0.001998778147 0.0019388001954 0.0018815343788 0.0018268168498 0.0017745469603 0.0023988240666 0.0023196750845 0.0022443228746 
0.0021725509195 0.0021041634581 0.0020389721092 0.0019768032443 0.0019174925128 0.0018608850254 0.0018068116106 0.0024534795961 0.0023711195937 
0.0022927817656 0.0022182390522 0.0021472774386 0.0020796923114 0.0020152919748 0.0019539025798 0.0018953509866 0.0018394674749 0.0025089846518 
0.0024233204096 0.0023419445856 0.0022645761388 0.0021909914066 0.0021209664532 0.0020542957897 0.0019907903343 0.001930265244 0.0018725379564 
0.0025653888912 0.0024763571424 0.002391860421 0.0023116215638 0.0022353640734 0.002162856239 0.0020938752941 0.0020282142343 0.0019656840936 
0.0019060992475 0.0026226955661 0.0025302517236 0.0024425810383 0.0023593998636 0.0022804299541 0.0022053971451 0.0021340672133 0.0020662197252 
0.0020016505536 0.0019401621376 0.0026808774199 0.0025849436081 0.0024940494623 0.0024078868354 0.0023261531031 0.0022485556291 0.0021748420395 
0.0021047751588 0.0020381386164 0.0019747215404 0.0027397784213 0.0026402972645 0.0025461423043 0.0024569491795 0.0023724083537 0.0022922194421 
0.0022160937597 0.0021437836014 0.0020750569729 0.0020096908357 0.0027991807469 0.0026961182422 0.00259865265 0.0025064133223 0.002419040624 
0.0023362241582 0.0022576688088 0.0021830972833 0.0021122660627 0.0020449391545 0.0028588834474 0.0027522110877 0.0026514120742 0.0025560953342 
0.0024658811742 0.0023804239988 0.0022994234934 0.00222258017 0.0021496360955 0.0020803414256 0.0026083058368 0.0025242425816 0.0024441002026 
0.002367664103 0.0022947396912 0.0022251407465 0.0021586897994 0.0020952201006 0.002034555798 0.0019765833017 0.002668016003 0.0025804810192 
0.0024971160431 0.0024176856313 0.0023419763435 0.0022697818562 0.002200910493 0.002135181936 0.0020724083879 0.0020124635602 0.0027286871378 
0.0026376104246 0.002550950231 0.0024684604512 0.0023899078601 0.0023150658676 0.0022437281525 0.0021757008755 0.0021107972498 0.0020488317921 
0.0027903193324 0.0026956001452 0.0026055850412 0.002519974274 0.0024385209007 0.0023609825068 0.0022871333404 0.0022167668964 0.0021496800729 
0.0020856771704 0.0028528928431 0.0027544613804 0.0026610057491 0.0025722225867 0.0024878176582 0.0024075359793 0.0023311333336 0.0022583881166 
0.0021890844442 0.0021230280948 0.0029163564952 0.0028141648707 0.0027172095412 0.002625190096 0.0025377836862 0.0024547150318 0.0023757207126 
0.0023005592963 0.0022290086578 0.0021608530343 0.0029806634255 0.0028746314217 0.0027741273342 0.0026788146017 0.0025883695514 0.0025024740555 
0.0024208523008 0.0023432468797 0.0022694183104 0.0021991381439 0.0030456909102 0.0029357579614 0.0028316641908 0.0027330161374 0.002639481531 
0.0025507303121 0.0024664531471 0.002386376374 0.0023102473205 0.0022378223578 0.0031112860647 0.0029974134023 0.0028896784775 0.0027876745511 
0.0026910217024 0.0025993777121 0.0025124234991 0.0024298572353 0.0023514096737 0.0022768256418 0.0031773097782 0.0030594634904 0.0029480559956 
0.0028426646973 0.0027428744897 0.0026483262894 0.00255867643 0.0024736042114 0.0023928277098 0.0023160748267 0.0028664674524 0.0027746522687 
0.0026870855902 0.0026035414781 0.002523807155 0.0024476803036 0.0023749711582 0.0023054999146 0.0022390766168 0.0021755820706 0.0029318240975 
0.002836234473 0.0027451610811 0.0026583574432 0.0025755880651 0.0024966328774 0.0024212848443 0.0023493506589 0.0022806279872 0.0022149801472 
0.0029982522538 0.0028988109975 0.0028041530293 0.0027140175302 0.0026281484989 0.0025463075397 0.002468269896 0.0023938286151 0.0023227807038 
0.0022549291648 0.0030657274463 0.002962326853 0.002864017435 0.0027704819524 0.0026814540334 0.0025966739983 0.0025158994941 0.0024389057387 
0.002365476937 0.0022954020114 0.0031341949969 0.0030267597665 0.0029247170364 0.0028277189012 0.0027354762994 0.0026477064875 0.0025641491405 
0.0024845630209 0.0024087174581 0.0023363870737 0.0032035844947 0.0030920467273 0.0029861968981 0.0028856864831 0.0027901773012 0.0026993727152 
0.002612992007 0.0025307769733 0.0024524804732 0.0023778784341 0.0032738098091 0.0031581164747 0.0030484045258 0.0029443141558 0.00284549855 
0.0027516187043 0.0026623786975 0.0025775020239 0.0024967264958 0.0024198119122 0.0033447914932 0.0032248660948 0.0031112502817 0.003003536106 
0.0029013616089 0.0028043747855 0.0027122458849 0.0026246787761 0.002541401624 0.0024621534402 0.0034163932843 0.00329218386 0.0031746210465 
0.0030632578323 0.0029576923634 0.0028575647283 0.0027625204724 0.002672243519 0.0025864440907 0.0025048453154 0.0034884998979 0.0033599798867 
0.0032384219521 0.0031233777247 0.0030144032186 0.0029111114245 0.0028131344243 0.0027201321066 0.0026317969014 0.002547837147 0.0031189960236 
0.0030197646419 0.0029250862964 0.0028347235119 0.0027484471343 0.0026660426282 0.0025873081305 0.0025120533821 0.0024400774607 0.0023712514373 
0.0031897697772 0.0030864820783 0.0029880315076 0.0028941584953 0.0028046120105 0.0027191588037 0.0026375795038 0.0025596678977 0.0024852109882 
0.002414059283 0.0032617013516 0.0031542725323 0.003051965674 0.0029545054412 0.0028616205791 0.002773057662 0.0026885784839 0.0026079622293 
0.0025309765999 0.0024574617919 0.0033347515587 0.0032230785091 0.0031168322829 0.0030157132169 0.0029194262087 0.0028276959278 0.0027402663145 
0.0026568976506 0.0025773609854 0.0025014337361 0.0034088402552 0.0032928280658 0.0031825773541 0.0030777334616 0.0029779841539 0.0028830339101 
0.0027926053926 0.0027064419525 0.0026242997609 0.0025459384961 0.0034838990786 0.003363473151 0.0032491312811 0.0031405082798 0.0030372439695 
0.002939025347 0.0028455554123 0.0027565592541 0.0026717750322 0.0025909637681 0.0035598202364 0.0034349280042 0.003316435771 0.0032039640661 
0.0030971415508 0.0029956122281 0.002899063844 0.0028072010362 0.0027197454681 0.0026364420564 0.0036365234721 0.0035070901834 0.0033844030002 
0.00326803772 0.0031576033676 0.0030527318048 0.0029530721314 0.0028583142097 0.0027681624101 0.002682344773 0.0037138910832 0.003579861298 
0.0034529340259 0.0033326403996 0.0032185644984 0.0031103130222 0.0030075158452 0.0029098408851 0.0028169724717 0.0027286232166 0.0037918134475 
0.0036531474368 0.0035219380848 0.0033976920074 0.0032799447553 0.0031682899666 0.0030623361141 0.0029617264998 0.0028661271278 0.002775233059 
0.0033654810319 0.0032591916307 0.0031577339519 0.0030608590086 0.0029683264329 0.0028799113294 0.0027954003704 0.0027145745312 0.0026372832272 
0.002563329041 0.0034414303635 0.0033308211535 0.0032253442154 0.0031247259663 0.0030287040276 0.0029370335617 0.0028494859233 0.0027658379984 
0.0026858737613 0.0026094318579 0.0035186186103 0.0034035894461 0.0032940035742 0.0031895609264 0.0030899774439 0.0029949870681 0.0029043395615 
0.0028178027178 0.0027351367409 0.0026561668548 0.0035969647114 0.0034774290483 0.0033636479984 0.0032553052225 0.0031520925297 0.0030537229631 
0.0029599240865 0.0028704481657 0.0027850526138 0.0027035039424 0.0036764106904 0.0035522587734 0.0034342123863 0.0033218999266 0.0032149956966 
0.0031131888776 0.0030161893537 0.002923728916 0.0028355489851 0.0027513992992 0.0037568668147 0.0036280204752 0.0035056186867 0.0033892794062 
0.0032786273856 0.0031733345612 0.0030730896658 0.0029776046941 0.0028866025142 0.0027998194456 0.0038382244885 0.0037046215194 0.0035778028319 
0.003457364982 0.0033429207647 0.0032340973203 0.0031305674172 0.0030320228008 0.0029381692452 0.00284873871 0.0039203839029 0.0037819579766 
0.0036506762244 0.0035260923303 0.0034078048032 0.0032954132333 0.0031885647924 0.0030869312689 0.0029901991754 0.0028980832251 0.004003248297 
0.003859936158 0.0037241412728 0.0035953739897 0.00347320262 0.0033572148263 0.0032470214705 0.0031422748403 0.0030426432015 0.0029478238031 
0.004086698052 0.0039384573953 0.0037981089611 0.0036651328202 0.0035390520956 0.0034194355259 0.0033058772477 0.0031979997017 0.0030954531878 
0.002997916901 
