# vtk DataFile Version 5.1
vtk output
ASCII
DATASET STRUCTURED_POINTS
DIMENSIONS 50 50 50
SPACING 0.002 0.002 0.002
ORIGIN 0.2174 -0.052672 0.02732
POINT_DATA 125000
FIELD FieldData 1
potential 1 125000 double
0.00048844896622 0.00048607864838 0.00048371721052 0.00048136186714 0.00047901191788 0.00047666521858 0.00047432614459 0.00047199367892 0.00046966905388 
0.00046735034469 0.00046504738028 0.00046275796858 0.00046048334499 0.00045822473399 0.00045598317121 0.00045375881197 0.00045155053297 0.00044935885428 
0.00044718189866 0.00044502028609 0.00044287411283 0.00044074131272 0.0004386255884 0.00043652615984 0.00043444382821 0.00043238025115 0.00043033712555 
0.00042831481746 0.0004263153037 0.00042433979097 0.00042238907031 0.00042046360312 0.00041856399187 0.00041669008398 0.00041484163669 0.00041301863578 
0.00041121991957 0.00040944460757 0.0004076936938 0.00040596603079 0.00040426306655 0.00040258474368 0.00040093054331 0.00039929959841 0.00039769450825 
0.00039611165254 0.00039455056283 0.00039300916863 0.0003914852378 0.00038997767419 0.00048867294192 0.0004863013023 0.00048394025039 0.00048158415205 
0.00047923341953 0.00047688997763 0.00047455326641 0.00047222442792 0.00046989972509 0.00046758991417 0.00046529202452 0.00046300804329 0.00046073843778 
0.00045848554933 0.00045624849982 0.00045402855355 0.00045182408268 0.00044963526588 0.00044746102947 0.00044530099494 0.00044315608942 0.00044102420743 
0.00043890879784 0.00043680950195 0.00043472713842 0.00043266401406 0.00043062030656 0.00042859811579 0.00042659892061 0.00042462371907 0.00042267354913 
0.00042074870063 0.0004188496182 0.00041697589527 0.00041512923384 0.00041330588855 0.00041150696035 0.00040973156779 0.00040797988876 0.00040625172441 
0.00040454843769 0.00040286877422 0.00040121435054 0.00039958407005 0.00039797802235 0.00039639515845 0.00039483415944 0.00039329286232 0.00039177018802 
0.0003902630191 0.00048868324045 0.00048631003511 0.00048394773583 0.0004815920529 0.00047924508764 0.00047690410043 0.00047457122783 0.00047224714862 
0.00046992770348 0.00046762374248 0.00046533208804 0.00046305382333 0.0004607910529 0.00045854371279 0.00045631236823 0.00045409678038 0.00045189715339 
0.00044971197927 0.00044754091583 0.00044538392674 0.00044323971524 0.00044111118836 0.0004389976449 0.0004368998359 0.00043481952473 0.00043275727764 
0.00043071527818 0.00042869483407 0.0004266974327 0.00042472461558 0.00042277680398 0.00042085401753 0.00041895711199 0.00041708578495 0.00041524038933 
0.00041341903102 0.00041162072632 0.00040984630916 0.00040809462564 0.00040636619975 0.00040466252503 0.00040298399772 0.00040132922019 0.00039969835637 
0.00039809181206 0.00039650840057 0.00039494722792 0.00039340542752 0.00039188213188 0.00039037497115 0.00048842735084 0.0004860563783 0.00048369385219 
0.00048134227454 0.0004789987887 0.00047666160984 0.00047433382132 0.0004720152363 0.00046970258497 0.00046740541382 0.00046512124032 0.00046285056114 
0.00046059511082 0.00045835434831 0.00045612957103 0.00045392009444 0.00045172534604 0.00044954553685 0.00044737885394 0.00044522583939 0.00044308498235 
0.00044095972896 0.00043884923041 0.00043675481459 0.0004346772958 0.00043261824403 0.00043057964517 0.00042856306429 0.00042656979576 0.00042460055891 
0.00042265674082 0.00042073883695 0.00041884606629 0.00041697918863 0.00041513597266 0.0004133168964 0.00041152121045 0.00040974739762 0.00040799733262 
0.00040627031652 0.00040456721547 0.00040288859318 0.00040123360674 0.00039960199063 0.00039799472133 0.00039641065664 0.0003948488991 0.00039330686938 
0.00039178332702 0.00039027578197 0.0004878681991 0.00048549912036 0.00048314235958 0.00048079472733 0.00047845608834 0.00047612607762 0.00047380432596 
0.00047148913838 0.0004691887598 0.00046689967998 0.00046462401255 0.00046236192904 0.00046011484935 0.00045788244378 0.00045566532835 0.00045346299543 
0.00045127489725 0.00044910082575 0.00044694018951 0.00044479089383 0.00044265660357 0.00044053606401 0.00043843010657 0.00043634050237 0.00043426765763 
0.00043221384239 0.00043018070396 0.00042816930767 0.0004261818857 0.00042421907122 0.00042228129906 0.00042036885271 0.00041848270037 0.00041662023945 
0.00041478195879 0.0004129655786 0.00041117370575 0.00040940356767 0.00040765590668 0.00040593037171 0.00040422892877 0.00040255064432 0.00040089579318 
0.00039926467936 0.00039765694504 0.00039607231585 0.00039450954362 0.00039296750247 0.00039144317443 0.00038993530497 0.00048697861888 0.00048461679562 
0.00048226599386 0.00047992491308 0.0004775932952 0.00047527137378 0.00047295815124 0.00047065193911 0.00046836082085 0.00046608191206 0.00046381600117 
0.00046156416357 0.00045932685659 0.00045710405226 0.00045489539072 0.00045270155857 0.00045052170848 0.00044835487107 0.00044620121869 0.00044405895765 
0.00044193154352 0.00043981738765 0.00043771805526 0.00043563456547 0.00043356839345 0.00043152063727 0.00042949477479 0.0004274914974 0.00042551178928 
0.00042355691262 0.00042162697854 0.00041972244356 0.00041784369664 0.00041598762783 0.00041415522744 0.00041234578827 0.00041055836801 0.00040879261786 
0.00040704790221 0.00040532514811 0.00040362552302 0.00040194853952 0.00040029459771 0.00039866410171 0.00039705658985 0.0003954720398 0.00039390899638 
0.00039236686906 0.00039084260009 0.00038933476694 0.00048575078439 0.00048339757555 0.000481054959 0.0004787227418 0.00047640035015 0.00047408827724 
0.00047178154001 0.00046949043622 0.00046721062404 0.00046494324842 0.0004626889345 0.00046044869501 0.00045822210534 0.00045601003072 0.00045381210023 
0.00045162787343 0.0004494574301 0.00044729986236 0.00044515286558 0.00044302023158 0.00044090151685 0.00043879562641 0.00043670399112 0.00043462831229 
0.00043257055388 0.00043053195119 0.00042851504838 0.00042652066987 0.00042455065938 0.00042260548952 0.00042068449925 0.00041879074412 0.00041691980767 
0.00041507307127 0.00041324877 0.00041144642939 0.0004096649813 0.00040790485066 0.00040616460791 0.00040444551379 0.00040274865736 0.00040107361447 
0.00039942145361 0.00039779203005 0.00039618583806 0.00039460188209 0.00039303935133 0.00039149769456 0.00038997394516 0.00038846730892 0.00048418925509 
0.00048184616486 0.00047951466963 0.00047719391402 0.00047488350506 0.00047258348542 0.00047028859751 0.00046801056977 0.00046574404802 0.00046348975847 
0.0004612485377 0.00045902081312 0.00045680710966 0.00045460715073 0.00045242121399 0.00045024791953 0.00044808821924 0.00044594117553 0.00044380418264 
0.0004416811899 0.00043957236355 0.00043747539008 0.00043539354633 0.0004333279997 0.00043128046477 0.00042925242848 0.00042724613136 0.00042526272402 
0.00042330332483 0.00042136916117 0.00041946175869 0.0004175774908 0.00041571757827 0.00041388071461 0.00041206596617 0.0004102718221 0.000408498155 
0.00040674439409 0.00040500978033 0.00040329569144 0.00040160252475 0.00039993097731 0.00039828142101 0.00039665392444 0.0003950492927 0.0003934670705 
0.0003919057725 0.00039036499324 0.00038884305964 0.00038733733241 0.00048231337005 0.00047998384601 0.00047766602852 0.00047535926591 0.00047306297597 
0.00047077269497 0.00046849716448 0.00046623364258 0.00046398182677 0.00046174220823 0.00045951546747 0.00045730178827 0.00045510181244 0.00045291514679 
0.00045074198546 0.00044858123591 0.00044643373115 0.00044429670275 0.00044217209713 0.00044006121937 0.00043796275979 0.00043587806102 0.00043380738309 
0.00043175329915 0.00042971757319 0.00042770171896 0.00042570625577 0.00042373539667 0.00042178891535 0.00041986829608 0.0004179732535 0.00041610126881 
0.0004142533828 0.00041242771435 0.00041062405861 0.00040883963325 0.00040707433835 0.00040532798307 0.00040360058058 0.00040189247696 0.00040020400608 
0.00039853648045 0.00039689021789 0.00039526591385 0.00039366397314 0.00039208412969 0.00039052468068 0.00038898596245 0.00038746591926 0.00038596250259 
0.00048015824265 0.00047784575256 0.00047554425857 0.00047325370312 0.00047097391583 0.000468699961 0.00046644112068 0.00046419394133 0.00046195785958 
0.00045973399709 0.00045752268031 0.00045532418894 0.00045313911902 0.00045096714108 0.0004488075975 0.0004466603291 0.00044452519424 0.00044240099648 
0.00044029071163 0.00043819174999 0.00043610599196 0.00043403368025 0.00043197641243 0.00042993423482 0.00042791154224 0.0004259089983 0.00042392820642 
0.00042197119067 0.00042003873362 0.00041813284342 0.00041625026919 0.00041439215275 0.00041255679783 0.00041074363837 0.00040895079521 0.0004071770632 
0.00040542181496 0.00040368422898 0.00040196412574 0.00040026307549 0.00039858042948 0.00039691815402 0.00039527624476 0.00039365616217 0.00039205788741 
0.00039048101737 0.00038892501656 0.00038738882683 0.00038587176624 0.00038437129945 0.00047776849779 0.00047547476479 0.00047319275878 0.00047092114929 
0.00046865533246 0.00046640444812 0.00046416335971 0.00046193405423 0.00045971575033 0.00045750915176 0.00045531435253 0.00045313178514 0.00045096204598 
0.00044880438681 0.00044665965982 0.00044452699203 0.00044240463159 0.0004402958318 0.00043819927261 0.00043611406245 0.00043404238175 0.00043198331809 
0.00042993951695 0.0004279128689 0.00042590475351 0.0004239169364 0.0004219509655 0.00042000858268 0.00041809253852 0.0004161999754 0.00041433201893 
0.00041248796332 0.00041066634351 0.00040886613425 0.00040708538609 0.00040532301776 0.00040357815074 0.00040184934122 0.00040013803947 0.00039844518186 
0.00039676960993 0.00039511350601 0.0003934772755 0.00039186188123 0.0003902679389 0.00038869520524 0.00038714312049 0.00038561066493 0.0003840966836 
0.00038259968722 0.00047519727078 0.00047292504664 0.00047066336492 0.00046841254153 0.00046616772116 0.00046393657528 0.00046171550512 0.00045950478311 
0.00045730518817 0.00045511655404 0.00045293927177 0.00045077278003 0.00044861922115 0.00044647784168 0.00044434826448 0.00044222879793 0.00044012276542 
0.00043802950835 0.0004359455516 0.0004338751279 0.00043181804694 0.00042977504273 0.0004277467823 0.00042573491156 0.00042374286141 0.00042177077003 
0.00041982047723 0.00041789403863 0.00041599312785 0.00041411592368 0.000412263279 0.00041043368022 0.00040862631835 0.00040683926086 0.00040507092415 
0.00040332047204 0.00040158648067 0.00039986808145 0.00039816624552 0.00039648156652 0.00039481388699 0.00039316525164 0.00039153537203 0.00038992604189 
0.00038833737356 0.00038676955577 0.00038522204063 0.00038369389613 0.00038218402829 0.00038069078792 0.0004725010795 0.00047025121951 0.00046801201058 
0.00046578325871 0.00046355994103 0.00046135033541 0.00045915046587 0.0004569600292 0.00045477889535 0.00045260872023 0.00045044931533 0.00044830082383 
0.00044616381075 0.00044403837887 0.00044192414021 0.00043981966457 0.00043772832901 0.00043564959903 0.00043358191225 0.00043152682962 0.00042948572266 
0.00042745843716 0.00042544657003 0.00042345136257 0.00042147513938 0.0004195198936 0.00041758612512 0.00041567703252 0.0004137908722 0.00041192924984 
0.00041009158658 0.00040827711745 0.00040648358937 0.00040470977214 0.00040295433835 0.00040121606337 0.00039949346428 0.00039778558384 0.00039609394721 
0.00039441813456 0.00039275903177 0.00039111799281 0.00038949570636 0.00038789288629 0.00038631057813 0.00038474834147 0.00038320631079 0.00038168300073 
0.00038017754488 0.00037868868313 0.00046973361435 0.000467507848 0.00046529269334 0.00046308281506 0.00046088666477 0.00045869843584 0.00045651976417 
0.00045435046488 0.0004521898268 0.00045003880862 0.00044789777827 0.00044576665084 0.00044364669433 0.00044153598407 0.00043943570994 0.00043734892099 
0.00043527323526 0.00043320905327 0.00043115741244 0.00042911831291 0.00042709317962 0.00042508264962 0.00042308763306 0.00042110962492 0.00041915060136 
0.00041721180447 0.00041529660514 0.00041340306514 0.00041153317552 0.00040968721558 0.00040786420999 0.00040606410911 0.00040428455422 0.00040252396808 
0.00040078150285 0.00039905506933 0.00039734373624 0.00039564699559 0.00039396563893 0.00039229949472 0.00039064961647 0.00038901718205 0.00038740276522 
0.00038580774829 0.00038423199999 0.00038267622678 0.00038113954984 0.00037962175314 0.00037812147204 0.00037663702523 0.0004669468317 0.00046474591612 
0.00046255445515 0.0004603686943 0.00045819591614 0.0004560316122 0.00045387514162 0.00045172647422 0.00044958609896 0.00044745439232 0.00044533059119 
0.00044321706052 0.00044111385589 0.00043901995567 0.00043693595778 0.00043486403576 0.00043280348937 0.00043075473688 0.0004287190907 0.00042669587256 
0.0004246871146 0.00042269363766 0.0004207159688 0.00041875531175 0.00041681358134 0.00041489237177 0.00041299411588 0.00041111714181 0.00040926343978 
0.00040743246188 0.0004056246175 0.00040383840905 0.00040207222943 0.0004003246238 0.00039859441543 0.00039687960136 0.00039517996274 0.00039349434538 
0.00039182372775 0.00039016785837 0.00038852770977 0.00038690461501 0.00038529874838 0.00038371163308 0.00038214313359 0.00038059414512 0.00037906370474 
0.00037755116842 0.00037605603576 0.00037457642593 0.00046418605257 0.00046201026671 0.00045983983548 0.00045768269224 0.00045553351359 0.00045339209627 
0.00045125758411 0.00044912906006 0.00044700901574 0.00044489619056 0.00044279182382 0.00044069596927 0.0004386088041 0.00043653016544 0.00043446263541 
0.00043240614835 0.00043036113585 0.00042832770467 0.00042630756869 0.00042430042447 0.00042230842604 0.00042033161869 0.00041837112687 0.00041642826409 
0.00041450414407 0.00041260122337 0.00041071827115 0.00040885821828 0.00040701998349 0.00040520440316 0.00040341038563 0.00040163774654 0.00039988446466 
0.00039814944509 0.00039643077565 0.00039472802097 0.00039303966561 0.00039136552574 0.00038970525079 0.00038805982723 0.00038642965695 0.00038481588928 
0.00038321960883 0.00038164074066 0.00038007984899 0.00037853792324 0.00037701420507 0.00037550744387 0.00037401747911 0.00037254298841 0.00046149083932 
0.0004593398171 0.00045719365955 0.00045506027861 0.00045293340259 0.00045081454413 0.00044870192025 0.00044659550075 0.00044449530786 0.00044240175922 
0.00044031501323 0.00043823647378 0.00043616471746 0.0004341029939 0.00043205125138 0.00043000962888 0.00042797997613 0.00042596169569 0.00042395719704 
0.00042196659489 0.00041999036385 0.00041803058549 0.00041608710216 0.00041416153072 0.00041225565854 0.00041036850587 0.00040850189862 0.00040665730113 
0.00040483485607 0.00040303371745 0.00040125339174 0.000399493576 0.00039775287347 0.00039602952737 0.00039432226549 0.00039263059944 0.00039095306805 
0.00038929008872 0.0003876408845 0.0003860063321 0.00038438640711 0.00038278271839 0.000381195514 0.00037962535768 0.00037807261076 0.00037653773466 
0.00037502053521 0.00037352033682 0.00037203570038 0.00037056635345 0.00045888958242 0.00045675768149 0.00045463932674 0.00045252941258 0.00045042607331 
0.00044832900724 0.00044623756271 0.0004441516674 0.00044207133398 0.00043999651265 0.00043792766185 0.00043586682562 0.00043381079214 0.00043176498839 
0.00042972824835 0.00042770179958 0.00042568701369 0.00042368380794 0.00042169480629 0.00041971972298 0.00041775974482 0.00041581643031 0.00041389024839 
0.00041198193822 0.00041009162069 0.00040822079522 0.00040636979039 0.00040454060582 0.00040273242198 0.00040094536796 0.00039917794463 0.00039743034253 
0.00039570112763 0.00039398955581 0.00039229337901 0.00039061272788 0.00038894598452 0.00038729344493 0.0003856551494 0.00038403103652 0.00038242147645 
0.00038082761248 0.00037925013766 0.00037768878934 0.00037614451041 0.00037461693532 0.00037310686508 0.00037161233837 0.00037013374972 0.00036866934718 
0.00045640661147 0.00045429728939 0.00045220133872 0.00045011294096 0.00044803104916 0.00044595508841 0.00044388414232 0.00044181815506 0.00043975694118 
0.00043770018547 0.00043565042705 0.00043360377938 0.00043156552212 0.0004295351663 0.00042751405959 0.00042550255641 0.00042350229665 0.00042151410628 
0.00041954040171 0.00041758058567 0.00041563670366 0.00041370905466 0.00041179852717 0.00040990666005 0.00040803193069 0.00040617666806 0.00040434104928 
0.00040252645516 0.00040073172056 0.00039895744091 0.00039720248867 0.0003954661596 0.00039374862592 0.00039204776622 0.00039036232134 0.00038869190517 
0.00038703563852 0.00038539392075 0.00038376598366 0.00038215209955 0.00038055240401 0.00037896861455 0.00037740025435 0.00037584814162 0.00037431218232 
0.00037279269073 0.00037128918786 0.00036980123431 0.000368328173 0.00036686915269 0.00045405185212 0.00045196813731 0.00044989275129 0.00044782493725 
0.00044576315105 0.00044370707839 0.00044165599668 0.00043960909086 0.00043756582887 0.00043552830472 0.00043349444043 0.00043146468182 0.00042944226759 
0.00042742751375 0.0004254213763 0.00042342465549 0.00042143908458 0.0004194662189 0.00041750717034 0.00041556272104 0.00041363376845 0.00041172124215 
0.00040982682965 0.00040794926655 0.00040608975696 0.00040424875032 0.00040242789233 0.0004006266019 0.00039884466055 0.00039708212563 0.00039533954975 
0.00039361464416 0.00039190736321 0.00039021656717 0.00038854133231 0.00038688107592 0.00038523499805 0.00038360311208 0.00038198536346 0.00038038174256 
0.00037879218476 0.00037721793065 0.00037565899998 0.00037411578637 0.00037258812415 0.00037107619748 0.00036957974875 0.00036809845535 0.0003666324921 
0.00036517891324 0.00045184458532 0.00044977967473 0.00044772308378 0.00044567400571 0.00044363106975 0.00044159372357 0.0004395604666 0.00043753198513 
0.00043550757731 0.00043348673153 0.00043146772721 0.00042945572667 0.00042744936738 0.0004254498651 0.00042345870335 0.00042147675581 0.00041950608008 
0.0004175478187 0.00041560328182 0.00041367353804 0.00041175939942 0.00040986210844 0.00040798127384 0.00040611811435 0.0004042727682 0.00040244611673 
0.00040063828474 0.00039884965881 0.0003970794974 0.00039532861091 0.00039359623829 0.00039188220421 0.00039018509394 0.00038850413417 0.00038683861612 
0.00038518799441 0.00038355134018 0.00038192937039 0.0003803214898 0.00037872760363 0.00037714767807 0.00037558290564 0.000374033301 0.00037249859782 
0.00037098028968 0.0003694759665 0.00036798671586 0.00036651196037 0.00036505116654 0.00036360325232 0.00044978578688 0.00044773718867 0.00044569764314 
0.00044366557158 0.0004416399693 0.00043961942609 0.00043760295306 0.00043559251193 0.00043358391711 0.00043157802831 0.000429577662 0.00042758087682 
0.00042559021105 0.00042360605744 0.000421629794 0.00041966264959 0.00041770655958 0.00041576318879 0.00041383288229 0.00041191717406 0.00041001811328 
0.00040813410294 0.00040626675827 0.00040441716755 0.00040258541494 0.00040077169237 0.00039897623655 0.00039719913543 0.00039544076833 0.00039370057569 
0.00039197839416 0.00039027360512 0.00038858609445 0.00038691444678 0.00038525838715 0.0003836163794 0.00038198969407 0.00038037689858 0.00037877829856 
0.00037719385533 0.00037562509671 0.00037406956439 0.00037252871886 0.00037100239507 0.00036949071249 0.00036799406285 0.00036651187808 0.00036504356325 
0.00036358882804 0.00036214742147 0.0004478755106 0.00044584147684 0.00044381731356 0.0004418002998 0.00043979010846 0.00043778554438 0.0004357866641 
0.00043379053435 0.00043179832306 0.00042980773365 0.00042782300035 0.00042584204071 0.00042386663862 0.0004218975095 0.00041993653441 0.0004179841473 
0.00041604236391 0.00041411306363 0.0004121969267 0.00041029516624 0.00040840955759 0.00040653905209 0.00040468518822 0.00040284829786 0.00040102907672 
0.0003992270779 0.00039744345455 0.0003956777351 0.00039393014686 0.00039219987349 0.00039048730545 0.00038879183438 0.00038711300821 0.00038544984575 
0.0003838033017 0.00038217002807 0.00038055176036 0.00037894823417 0.00037735882019 0.00037578366832 0.00037422260564 0.00037267606519 0.00037114365518 
0.00036962603281 0.00036812259684 0.00036663319816 0.00036515790456 0.00036369670906 0.00036224849256 0.00036081329702 0.00044611397685 0.00044409267257 
0.0004420816684 0.00044007826142 0.00043808144952 0.00043609167723 0.00043410632202 0.0004321252399 0.00043014541769 0.00042817209139 0.00042620225063 
0.0004242367734 0.00042227611329 0.00042032200224 0.00041837571658 0.00041643826932 0.00041451104012 0.00041259585114 0.00041069353097 0.0004088066406 
0.00040693338728 0.00040507592404 0.0004032344898 0.00040140993859 0.00039960222191 0.00039781203446 0.00039603936213 0.00039428425278 0.00039254720534 
0.00039082647484 0.0003891232098 0.00038743624107 0.00038576546699 0.00038411114216 0.00038247133421 0.00038084632429 0.00037923661374 0.00037764138281 
0.00037606087135 0.00037449443482 0.00037294201664 0.00037140386062 0.00036987969621 0.00036836969679 0.0003668741769 0.00036539253157 0.0003639246662 
0.00036247032824 0.00036102889025 0.00035959994778 0.00044450128825 0.00044249067945 0.00044049040302 0.0004384984233 0.00043651509164 0.00043453642065 
0.00043256332143 0.00043059347219 0.00042862899698 0.00042666883235 0.00042471334185 0.0004227622295 0.00042081630425 0.0004188772684 0.00041694580163 
0.00041502249509 0.0004131098811 0.00041120887305 0.00040932147675 0.00040744709616 0.00040558715396 0.00040374351511 0.00040191421917 0.00040010153662 
0.00039830516928 0.00039652549281 0.00039476300454 0.00039301789871 0.00039128946611 0.00038957716406 0.00038788230411 0.0003862036044 0.00038454092117 
0.00038289366056 0.00038126223839 0.0003796451775 0.00037804320749 0.00037645634189 0.00037488415284 0.0003733256288 0.00037178137575 0.00037025166408 
0.00036873608366 0.00036723463766 0.00036574686578 0.00036427276564 0.00036281263213 0.00036136488699 0.00035993047926 0.00035850815524 0.0004430352345 
0.00044103304302 0.00043904145135 0.00043706056452 0.00043508588005 0.00043311768901 0.0004311561341 0.00042919717482 0.00042724513451 0.00042529827463 
0.00042335703399 0.00042142016296 0.0004194883575 0.00041756391382 0.00041564696707 0.00041373819331 0.0004118402261 0.0004099544356 0.00040807978129 
0.00040621852779 0.00040437161454 0.0004025390523 0.00040072207407 0.00039892095787 0.00039713551521 0.00039536603297 0.00039361316446 0.00039187729532 
0.00039015731226 0.00038845378593 0.00038676664764 0.00038509525695 0.00038344007926 0.00038180025995 0.00038017628867 0.00037856684531 0.00037697262118 
0.00037539327281 0.00037382851387 0.00037227807418 0.0003707416797 0.00036921990777 0.00036771230175 0.00036621857364 0.00036473884203 0.00036327234513 
0.00036181952375 0.00036037901121 0.00035895133666 0.00035753623057 0.0004417143319 0.00043971869867 0.00043773539513 0.00043576079534 0.00043379407571 
0.00043183515752 0.00042988130396 0.00042793457243 0.00042599359841 0.00042405831736 0.00042212887634 0.00042020492966 0.00041828748258 0.00041637713958 
0.00041447426754 0.00041257990094 0.00041069620187 0.00040882495672 0.0004069641569 0.00040511638718 0.00040328164697 0.00040146189995 0.00039965679709 
0.00039786654899 0.00039609157716 0.00039433209846 0.00039258838963 0.00039086083508 0.00038914952382 0.00038745386166 0.00038577371809 0.00038410956819 
0.00038246139063 0.00038082881593 0.00037921105588 0.00037760934662 0.00037602237409 0.00037445030562 0.00037289283816 0.00037134996977 0.00036982136678 
0.00036830725758 0.00036680755945 0.00036532119942 0.00036384873303 0.000362389984 0.00036094394267 0.00035951098331 0.00035809078028 0.00035668233763 
0.00044053624576 0.00043854660102 0.00043656642035 0.00043459717706 0.00043263709075 0.00043068376123 0.00042873991554 0.00042680194884 0.00042487062052 
0.00042294632902 0.00042102858304 0.000419117546 0.0004172130257 0.00041531636515 0.00041342779724 0.00041154796522 0.00040967958813 0.00040782117593 
0.00040597460884 0.00040414043982 0.00040231819203 0.0004005106105 0.00039871714284 0.00039693765454 0.00039517272976 0.00039342290768 0.00039168779994 
0.00038996843754 0.00038826495136 0.0003865764316 0.00038490350013 0.00038324610386 0.00038160437341 0.00037997816902 0.00037836701615 0.00037677125366 
0.00037519165672 0.00037362636797 0.00037207586689 0.00037054051715 0.00036901939642 0.00036751263849 0.00036602001654 0.00036454122955 0.00036307630726 
0.0003616244863 0.00036018628617 0.00035876078512 0.00035734775922 0.00035594701963 0.00043950178993 0.00043751370159 0.00043553683319 0.00043357125187 
0.00043161623847 0.00042966877885 0.0004277309279 0.00042580076821 0.00042387805628 0.00042196324392 0.00042005612431 0.00041815702704 0.00041626543038 
0.00041438182697 0.00041250706433 0.000410642882 0.00040878775807 0.00040694374229 0.00040511077096 0.00040328943927 0.00040148069149 0.00039968499484 
0.00039790261028 0.00039613385727 0.00039437883076 0.00039263814687 0.00039091175351 0.00038919997842 0.00038750331994 0.00038582177765 0.00038415533808 
0.00038250439089 0.00038086836001 0.00037924828847 0.00037764313238 0.00037605369226 0.00037448029769 0.00037292157794 0.00037137800477 0.000369849542 
0.00036833534838 0.00036683580455 0.00036535034326 0.00036387882867 0.00036242120771 0.00036097715034 0.00035954621523 0.00035812824675 0.0003567227828 
0.00035532981235 0.00043860890183 0.00043662194688 0.00043464680413 0.00043268398411 0.00043073004612 0.000428788233 0.00042685543382 0.00042493168436 
0.00042301639508 0.00042111029903 0.00041921309028 0.0004173247748 0.00041544502082 0.00041357445954 0.00041171426722 0.00040986334488 0.00040802267489 
0.00040619251123 0.00040437249178 0.00040256530933 0.00040076921281 0.00039898554327 0.00039721405907 0.00039545554969 0.00039370995051 0.00039197780908 
0.00039025938807 0.00038855501847 0.00038686526934 0.00038518982545 0.00038352942601 0.00038188389606 0.00038025376181 0.00037863918274 0.00037703997958 
0.00037545593203 0.00037388815248 0.00037233609251 0.00037079890017 0.0003692768403 0.0003677694422 0.00036627662111 0.00036479849894 0.00036333404914 
0.00036188384625 0.00036044720264 0.00035902335043 0.00035761311674 0.00035621561793 0.00035483014111 0.00043785975511 0.00043587229587 0.00043389791435 
0.00043193404934 0.00042998368869 0.00042804456364 0.00042611554355 0.00042419648956 0.00042228765999 0.00042038903164 0.00041849984205 0.0004166217418 
0.00041475356259 0.0004128966567 0.00041104827451 0.00040921129968 0.0004073844629 0.00040556780846 0.00040376199928 0.0004019675922 0.00040018377458 
0.00039841193561 0.00039665122303 0.00039490236607 0.00039316570844 0.0003914421192 0.00038973135167 0.00038803372355 0.00038635025866 0.00038468025196 
0.00038302526837 0.00038138499969 0.00037976038377 0.00037815072729 0.00037655651243 0.00037497856132 0.00037341581079 0.00037186911095 0.00037033807937 
0.00036882220316 0.00036732138684 0.00036583541154 0.00036436352215 0.00036290628879 0.00036146348813 0.00036003509968 0.00035861952034 0.00035721726018 
0.00035582826931 0.00035445063697 0.00043725503611 0.0004352654437 0.00043328979845 0.00043132592851 0.00042937589328 0.00042743866976 0.00042551175649 
0.00042359674205 0.00042169293129 0.00041980108929 0.00041792080572 0.00041605216995 0.00041419577146 0.00041234933136 0.00041051391332 0.00040868992779 
0.00040687659125 0.00040507367143 0.00040328165822 0.00040149957549 0.00039972770823 0.000397966862 0.00039621671874 0.00039447731497 0.00039274970196 
0.00039103395935 0.00038932974023 0.00038763794505 0.00038596014974 0.00038429573431 0.00038264541426 0.00038101002857 0.00037938987827 0.00037778455605 
0.00037619532527 0.00037462241525 0.00037306488192 0.0003715234867 0.00036999767599 0.00036848736895 0.000366992916 0.00036551332369 0.00036404880667 
0.00036259865204 0.00036116301884 0.00035974208907 0.00035833433731 0.00035693994975 0.00035555801753 0.00035418897546 0.00043679566622 0.00043480319172 
0.00043282362167 0.0004308602679 0.00042890978388 0.0004269729238 0.00042504756931 0.00042313554228 0.00042123613194 0.00041934998355 0.00041747675964 
0.00041561646072 0.00041377028253 0.00041193489835 0.0004101114922 0.00040830038114 0.00040649985625 0.00040471038757 0.000402931158 0.00040116178625 
0.00039940125574 0.00039765112309 0.00039591064032 0.00039418055859 0.0003924607212 0.00039075160792 0.00038905375758 0.00038736783406 0.00038569482945 
0.00038403512424 0.00038238913464 0.0003807577393 0.00037914172085 0.00037754070263 0.00037595518163 0.00037438695953 0.00037283434167 0.00037129820166 
0.00036977765851 0.00036827329888 0.00036678466398 0.00036531118913 0.00036385288349 0.00036241014389 0.00036098197752 0.00035956817736 0.00035816820296 
0.00035678184105 0.00035540849111 0.00035404778618 0.00043648083625 0.00043448294059 0.00043250209703 0.00043053646554 0.00042858531773 0.00042664803107 
0.0004247232528 0.00042281285919 0.00042091668534 0.0004190350682 0.00041716820287 0.00041531694995 0.00041347880706 0.00041165357649 0.00040984208552 
0.0004080426914 0.00040625561258 0.00040447827067 0.00040271154314 0.00040095391818 0.00039920470133 0.00039746405453 0.00039573332935 0.00039401133405 
0.00039229881087 0.00039059569867 0.00038890377195 0.00038722259511 0.00038555395982 0.00038389734011 0.00038225502863 0.00038062757247 0.00037901505793 
0.00037741755225 0.00037583682782 0.00037427256668 0.00037272447208 0.00037119267915 0.00036967726549 0.00036817723187 0.00036669454224 0.00036522794895 
0.00036377604626 0.00036233947474 0.00036091844186 0.00035951197471 0.00035812000382 0.00035674189177 0.00035537722837 0.00035402542972 0.0004363078913 
0.00043430676982 0.00043232201684 0.00043035365729 0.00042840057464 0.00042646186635 0.00042453732728 0.00042262777241 0.00042073395782 0.00041885631874 
0.0004169959355 0.00041515066823 0.0004133207903 0.0004115054776 0.00040970442123 0.00040791712068 0.00040614135911 0.00040437642864 0.00040262117681 
0.00040087454999 0.000399135599 0.00039740519919 0.00039568273825 0.00039396805306 0.00039226118422 0.00039056387936 0.00038887669558 0.0003871998897 
0.00038553451135 0.00038388162334 0.00038224267898 0.00038061804341 0.00037900843421 0.00037741453659 0.00037583736024 0.00037427633637 0.00037273193646 
0.00037120420939 0.00036969400099 0.00036819918998 0.00036672170512 0.00036526002924 0.00036381435198 0.00036238440705 0.00036097027889 0.00035957133235 