# vtk DataFile Version 5.1
vtk output
ASCII
DATASET STRUCTURED_POINTS
DIMENSIONS 50 50 50
SPACING 0.002 0.002 0.002
ORIGIN 0.2174 -0.052672 0.02732
POINT_DATA 125000
FIELD FieldData 1
potential 1 125000 double
0.035597683987 0.035608245547 0.035618843433 0.035629359585 0.035639733382 0.035650770772 0.035661549458 0.03567263178 0.035684161606 
0.035696021164 0.035708783367 0.035722267029 0.035736469317 0.035751340882 0.035766818485 0.035782907103 0.035799146874 0.035815608909 
0.03583202788 0.035848340374 0.035864515357 0.035880605566 0.035896393856 0.035912047976 0.035927646984 0.035943319139 0.035959271705 
0.035975468548 0.035992147511 0.03600940622 0.036027364423 0.036046069237 0.036065613417 0.036086046074 0.036107351778 0.03612932727 
0.036152511763 0.036176543255 0.036201609089 0.036227678713 0.036254803488 0.036283149259 0.03631259715 0.036342930698 0.036374534107 
0.036407752417 0.036441590682 0.036476231437 0.036511528057 0.036547405487 0.035520462415 0.035530801914 0.035540807675 0.03555134493 
0.03556219905 0.035572702024 0.035583359447 0.035594480133 0.035605812841 0.035618016207 0.035630884383 0.035644495778 0.035658799545 
0.035673821503 0.035689382696 0.035705564475 0.035721872655 0.03573833748 0.035754782582 0.035771105846 0.035787268293 0.035803345966 
0.03581909907 0.035834724177 0.035850304474 0.035866050016 0.035881916243 0.035898135377 0.035914850689 0.035932154043 0.03595016056 
0.035968933843 0.035988577088 0.036008957269 0.036030194577 0.036052440697 0.036075601272 0.036099652655 0.036124653965 0.036150736416 
0.03617786148 0.036205895183 0.036235328422 0.036265909214 0.036297696962 0.036330931422 0.03636480324 0.036399483066 0.036435123644 
0.036471068063 0.03543516292 0.035445524685 0.035455636112 0.035466286879 0.035476558942 0.035486975259 0.035497698359 0.035508635716 
0.035520031655 0.035532337177 0.035545330148 0.035559022805 0.035573473662 0.035588573463 0.035604228119 0.035620285453 0.03563677894 
0.035653229611 0.03566967089 0.035685989205 0.03570220589 0.035718171245 0.035733898689 0.035749508481 0.035765165177 0.035780838199 
0.035796745371 0.035813011556 0.035829839551 0.035847253761 0.035865375067 0.035884150652 0.035903849957 0.035924425333 0.035945706733 
0.035968050711 0.035991181286 0.036015238625 0.036040272258 0.036066026746 0.036093043652 0.036121471231 0.036150820505 0.036181283451 
0.036212960945 0.036245737267 0.036279911449 0.036314493249 0.036349818383 0.036385718115 0.035339784361 0.035349510738 0.035359838452 
0.035369835543 0.035379986713 0.035390001767 0.035400721584 0.035411835922 0.035423334449 0.035435736736 0.035448687343 0.035462504107 
0.035477064185 0.035492219059 0.035507932149 0.035524042192 0.035540377654 0.035556980875 0.035573395373 0.035589672012 0.035605832469 
0.035621714874 0.035637408366 0.03565311795 0.035668709783 0.035684469442 0.035700430863 0.035716804561 0.035733717947 0.03575112713 
0.03576938734 0.035788704733 0.035808554499 0.035829064307 0.035850578443 0.035872930198 0.035896194871 0.035919961767 0.035944887039 
0.035970730432 0.0359976455 0.036025693339 0.036054855481 0.036085075114 0.036116541447 0.036149111821 0.03618308418 0.03621751156 
0.03625268866 0.036288421383 0.035229821159 0.035239888548 0.035249529836 0.035259323024 0.035269267338 0.035279576982 0.035290272691 
0.035301253219 0.035313021959 0.035325499508 0.035338730308 0.035352668173 0.03536732961 0.035382575942 0.035398155109 0.035414274425 
0.035430606532 0.035447022133 0.035463539869 0.035479889003 0.035495903372 0.03551176739 0.035527406894 0.035543058951 0.035558637394 
0.035574451481 0.035590502624 0.035606837544 0.035623895172 0.035641604138 0.035660036675 0.035679236205 0.035699084558 0.03571988555 
0.035741511183 0.035763698753 0.035786888577 0.035810841253 0.035835684911 0.035861371949 0.035888145217 0.035915953873 0.035944856399 
0.035974870771 0.036006016984 0.036038278066 0.036071891785 0.036106101662 0.036140943005 0.036176356756 0.035104692043 0.035114023643 
0.035123503511 0.03513311935 0.035143012438 0.035153298782 0.035163927224 0.035174942479 0.035186762252 0.035199363043 0.035212690109 
0.035226750512 0.03524149913 0.035256822391 0.035272596251 0.03528873971 0.035305078914 0.035321515312 0.035337650719 0.03535408756 
0.035370049238 0.035385788897 0.03540146811 0.035417015826 0.035432613902 0.035448222512 0.035464371451 0.035481067613 0.035498276625 
0.035516167935 0.035534777551 0.035554170808 0.035574179679 0.035594910619 0.035616679026 0.035639078013 0.035662213036 0.035686104318 
0.03571077447 0.035736286234 0.035762816102 0.035790343967 0.035818935838 0.035848614286 0.035879393002 0.035911296058 0.035944138935 
0.035978329952 0.036012821021 0.036047867132 0.034962535781 0.034971706521 0.034980993587 0.034990475076 0.035000281428 0.035010517984 
0.035020991407 0.035032316549 0.035044224124 0.035056862185 0.035070307525 0.03508449004 0.035099390364 0.03511477214 0.035130604061 
0.035146731873 0.035163041982 0.03517937313 0.035195735155 0.035211817276 0.035227885279 0.035243666685 0.035259182089 0.035274369648 
0.035289986783 0.035305809101 0.03532204299 0.035338767171 0.035356129457 0.035374282823 0.035392853604 0.035412304623 0.035432719507 
0.035453796396 0.035475554987 0.035497976437 0.035521054331 0.035544859626 0.035569338944 0.035594631606 0.03562086498 0.035648027228 
0.035676254456 0.035705529049 0.035735923964 0.03576736842 0.035799759153 0.035833504533 0.035867550516 0.03590222345 0.034804184721 
0.034813133109 0.034822288509 0.034831705928 0.034841456094 0.034851680229 0.034862123053 0.034873643371 0.034885739949 0.03489847413 
0.034911971206 0.034926233005 0.034941158195 0.034956603519 0.034972482703 0.034988596134 0.035004874564 0.035021161554 0.03503744475 
0.035053428959 0.035069354964 0.035084937896 0.035100439614 0.035115915695 0.035131550752 0.035147435393 0.035163754524 0.035180599013 
0.035197719758 0.035215935373 0.035234800094 0.035254651786 0.035275233755 0.035296401335 0.035318243073 0.035340647325 0.035363684941 
0.035387343905 0.035411621423 0.035436677633 0.035462556146 0.035489185399 0.035516994503 0.035545780042 0.035575681725 0.03560665154 
0.035638538596 0.035671360132 0.035705336225 0.035739488548 0.034630820747 0.034639770816 0.034648838503 0.034658209546 0.034667936404 
0.034677905719 0.034688710079 0.034700179631 0.034712380592 0.034725326794 0.034738906221 0.034753260801 0.034768262299 0.034783701637 
0.034799594048 0.034815705936 0.03483196365 0.034848299362 0.034864176288 0.034880211222 0.034895940434 0.034911675557 0.034927116511 
0.034942565714 0.034958214609 0.034974152645 0.034990264122 0.035007226905 0.035024857767 0.035043119578 0.035062261277 0.035082125941 
0.035102749606 0.03512399149 0.03514584444 0.035168239727 0.035191155991 0.035214633964 0.035238721529 0.035263493178 0.035289000273 
0.035315394189 0.035342715801 0.035371035701 0.035400423193 0.035430855387 0.035462153971 0.035494429727 0.035527842594 0.035561481807 
0.034444622807 0.034453466333 0.034462506545 0.034471880077 0.034481670549 0.034491659227 0.034502566913 0.03451414988 0.034526637049 
0.034539660275 0.034553425696 0.034567770278 0.034582839596 0.03459839317 0.034614273956 0.034630316689 0.034646301494 0.034662573169 
0.034678720596 0.034694553327 0.034710206666 0.034725554784 0.034741137717 0.034756333737 0.034771951944 0.03478792158 0.034804355289 
0.034821424016 0.034839333578 0.03485773279 0.034877009432 0.034897046889 0.034917731486 0.034939050042 0.034960909051 0.034983277719 
0.03500623671 0.035029541347 0.035053343435 0.035077804998 0.035102935174 0.035128899184 0.035155733304 0.035183378233 0.035212223851 
0.035242063157 0.035272839354 0.035304493631 0.03533695682 0.035370424346 0.034248928428 0.034257789342 0.034266690865 0.034276151145 
0.03428575469 0.034296143082 0.034307127825 0.034318829159 0.034331240887 0.034344399401 0.034358242865 0.034372651714 0.034387722911 
0.034403056525 0.034419153208 0.034435069518 0.034451313422 0.034467376132 0.034483393705 0.03449914291 0.03451475197 0.034529970648 
0.034545340969 0.03456093279 0.034576568926 0.034592587075 0.034609090231 0.034626386858 0.034644137811 0.03466277637 0.034682164242 
0.034702286922 0.034723051144 0.034744394361 0.034766229724 0.034788520902 0.034811216923 0.034834256797 0.034857802102 0.034882115226 
0.034906872493 0.034932398584 0.034958766204 0.034986041049 0.035014322954 0.035043585543 0.035073770243 0.035104827579 0.035136641425 
0.035169505916 0.034046631117 0.034055643067 0.034064862223 0.034074459161 0.034084026535 0.034094560045 0.034105672437 0.03411749394 
0.034130034196 0.034143148744 0.034157088143 0.034171394021 0.034186417902 0.034201939065 0.034217777657 0.034233906029 0.03424994742 
0.034266083392 0.034281660893 0.034297339503 0.034313034975 0.034328461549 0.034343837041 0.034359255785 0.034375117488 0.034391163415 
0.034407900777 0.034425132035 0.034442938598 0.034461661775 0.034481155113 0.03450132302 0.034522129078 0.034543455044 0.034565224432 
0.034587418676 0.034609951084 0.034632802127 0.034656092724 0.034679905812 0.034704288071 0.034729566547 0.034755449772 0.034782227556 
0.034809950984 0.034838629025 0.034868230447 0.034898663963 0.034929843321 0.034961649773 0.03384171186 0.033850878894 0.03386028811 
0.033870067427 0.033879884494 0.033890611867 0.033901931406 0.033913707574 0.033926096378 0.033939439621 0.033953444737 0.03396803457 
0.033983049125 0.033998547894 0.034014279066 0.034030295771 0.034046116628 0.034062040345 0.034077795383 0.034093406693 0.034108914814 
0.034124309749 0.034139701063 0.034155138473 0.034170869323 0.034187526913 0.034204170478 0.034221332374 0.034239343016 0.03425812003 
0.034277637697 0.034297857493 0.034318636424 0.034339901101 0.034361595752 0.034383678304 0.034406040772 0.034428670384 0.034451709018 
0.034475183058 0.034499200519 0.034523886657 0.034549334986 0.034575616473 0.034602966415 0.034631069679 0.034660102486 0.034689913143 
0.03472045182 0.034751623527 0.033637564485 0.033646979898 0.033656661154 0.033666416595 0.033676861666 0.033687531996 0.033699023769 
0.03371117997 0.033723949692 0.033737382987 0.033751256294 0.03376584507 0.033780944143 0.033796007146 0.033811793132 0.033827677941 
0.033843514219 0.033859299663 0.033874973835 0.033890544249 0.033906013428 0.033921417633 0.033936840622 0.033952569003 0.033968383535 
0.033984577955 0.034001290095 0.034018678318 0.034036753712 0.034055571461 0.034075260144 0.034095443472 0.034116178198 0.034137354502 
0.034158961945 0.034180877528 0.034203026952 0.034225456092 0.034248228588 0.034271397975 0.034295087212 0.034319388367 0.034344405803 
0.034370257998 0.034396907302 0.03442448329 0.034452890245 0.034482289791 0.034512213096 0.034542720468 0.033437844671 0.033447579834 
0.033457285731 0.033467345754 0.033478064076 0.033489275356 0.033501007971 0.033513286508 0.033526176045 0.033539685327 0.033553512286 
0.033568089336 0.03358295947 0.033598255507 0.033613956155 0.033629627773 0.033645290822 0.033660969537 0.033676591061 0.033692084585 
0.033707532442 0.033722979916 0.033738660983 0.033754280747 0.033770183332 0.03378649317 0.033803349046 0.033820769573 0.033838895712 
0.033857654915 0.033877154035 0.033897268538 0.033917904797 0.033938970947 0.03396061897 0.033982322864 0.03400430596 0.034026534661 
0.034049081134 0.034071991076 0.034095375245 0.034119357312 0.03414398779 0.034169405818 0.034195570408 0.034222630528 0.034250491668 
0.034279078836 0.034308372097 0.034338830081 0.033245191095 0.033255282864 0.033265355606 0.033275998748 0.033287015381 0.033298483111 
0.033310424795 0.033322613107 0.033335638364 0.033349179226 0.033363276256 0.033377826878 0.033392743562 0.033408208959 0.033423504082 
0.033438901423 0.033454484359 0.033470021934 0.033485544468 0.033501004045 0.033516469501 0.033532132968 0.033547685167 0.03356343293 
0.033579457494 0.033595727845 0.033612643014 0.033630315359 0.033648449652 0.033667246294 0.033686655074 0.033706681331 0.033727175046 
0.033748109774 0.033769356069 0.033790913878 0.033812704419 0.033834760311 0.033857251695 0.033879920915 0.033903039641 0.033926700297 
0.033951039072 0.033976047706 0.034001756929 0.034028344241 0.03405570145 0.034084275438 0.034112970685 0.034142251267 0.03306266468 
0.033073129649 0.033083557331 0.033094531418 0.033105592106 0.033117321894 0.033129483859 0.033142112022 0.033155212948 0.033168828716 
0.033182873979 0.033197370575 0.033212451998 0.033227537207 0.03324283044 0.033258101947 0.033273571413 0.033289024227 0.033304448436 
0.033319807354 0.033335442234 0.033350973728 0.033366601587 0.033382470507 0.03339846688 0.033414990002 0.033431980781 0.033449559401 
0.033467878728 0.033486651428 0.033505988317 0.033525891703 0.033546273045 0.033567027445 0.033588074127 0.033609423943 0.033631033487 
0.033652893501 0.033675014913 0.03369750665 0.033720400263 0.033743834133 0.03376804484 0.033792708094 0.033818047048 0.033844713225 
0.033871574049 0.033899109685 0.033927223941 0.033955916453 0.032891699501 0.032902252337 0.032913287304 0.032924620015 0.032936231489 
0.032948194989 0.032960554607 0.032973336299 0.032986545313 0.033000199751 0.033014229926 0.033028806726 0.033043652941 0.033058624333 
0.033073751678 0.033088893795 0.033104235656 0.033119595113 0.033135006486 0.033150633153 0.033166101475 0.033181699644 0.033197367489 
0.033213157015 0.033229411495 0.033246046833 0.033263092369 0.033280734346 0.033298900047 0.033317803322 0.03333704517 0.033356820918 
0.033377019187 0.033397638673 0.033418508599 0.033439690718 0.033461115977 0.033482777903 0.033504746335 0.033527053326 0.033549759943 
0.033572962981 0.033596751416 0.033621666067 0.033646692467 0.033672589144 0.033699026898 0.033726025405 0.033753675187 0.033781768442 
0.032734275008 0.032745188009 0.032756565172 0.032768173994 0.032780049517 0.032792256169 0.032804799521 0.032817721961 0.032831033625 
0.03284466736 0.032858891249 0.032873365948 0.032887978225 0.032902817786 0.032917851681 0.032932981183 0.032948080842 0.032963596923 
0.032978982005 0.032994413365 0.03300990578 0.033025565057 0.033041401676 0.033057322599 0.033073646983 0.033090369403 0.033107443392 
0.033125123873 0.033143280695 0.033162086907 0.033181250466 0.033200853382 0.033220962554 0.03324139294 0.033262100239 0.03328307368 
0.033304329646 0.033325888681 0.033347698197 0.03336983212 0.033392351155 0.03341538199 0.033439479478 0.033463621572 0.033488351656 
0.033513742396 0.033539764649 0.033566342374 0.033593673895 0.033621251914 0.03259079567 0.032602393602 0.032614065025 0.03262596608 
0.032638072651 0.03265047975 0.032663225349 0.032676246098 0.032689606704 0.032703460389 0.032717464981 0.032731903655 0.03274641094 
0.032761149825 0.032776059938 0.03279108334 0.032806472069 0.032821593474 0.032836936888 0.03285237554 0.032867962551 0.032883637591 
0.032899400714 0.032915567814 0.032932007131 0.032948777068 0.032966009362 0.032983679228 0.033001793272 0.033020310175 0.03303958943 
0.033059098211 0.033079012429 0.033099260956 0.033119814384 0.033140632839 0.033161754591 0.033183142578 0.033204824998 0.033226836646 
0.033249781058 0.033272644518 0.033296016405 0.03331994702 0.033344408288 0.033369515579 0.033395179294 0.033421390118 0.033447594155 
0.033474714724 0.032462520882 0.032474395256 0.032486444787 0.032498566569 0.032510895146 0.032523495612 0.032536335908 0.032549491515 
0.032563096664 0.032576838303 0.032590914423 0.032605150201 0.032619603174 0.032634234561 0.032649049468 0.032664235577 0.032679333656 
0.032694416912 0.032709738243 0.032725201311 0.032740850606 0.032756400909 0.032772394203 0.032788648054 0.032805159413 0.032822045176 
0.032839295672 0.032856969497 0.032875013193 0.032893541497 0.032912487488 0.032932046068 0.032951814183 0.032971910325 0.032992312193 
0.033012985161 0.033033944225 0.033055220603 0.033076796151 0.033099230416 0.033121508693 0.033144250686 0.033167484475 0.033191211402 
0.033214945729 0.033239763075 0.033265137976 0.033291066726 0.033317419386 0.033344074091 0.032349859497 0.03236185782 0.032374099708 
0.032386416844 0.032399062359 0.032411783221 0.032424560415 0.032437978367 0.032451458983 0.032465340236 0.032479309351 0.032493455643 
0.032507852852 0.032522422137 0.032537410425 0.032552284263 0.032567353632 0.032582558159 0.032597755632 0.03261322205 0.03262875611 
0.032644585524 0.032660564755 0.032676876833 0.0326934783 0.032710396479 0.032727667109 0.032745302074 0.032763360398 0.032781809124 
0.032800677262 0.032819891166 0.032839671284 0.032859637147 0.032879914705 0.032900431851 0.032921361112 0.032943040343 0.032964512341 
0.032986327586 0.033008070027 0.033030693952 0.033053777069 0.033077339833 0.033101349152 0.03312595503 0.033151075313 0.033176672804 
0.033202628961 0.033229089929 0.032252406656 0.032264588107 0.03227693286 0.032289506082 0.032302181675 0.032315177544 0.03232843438 
0.032341725088 0.032355271111 0.03236913501 0.032383096959 0.032397210587 0.032411552901 0.032426320631 0.032441028118 0.032455853112 
0.032470863181 0.03248603733 0.032501362777 0.032516734097 0.032532276977 0.03254815034 0.032564258328 0.032580547224 0.032597192644 
0.032614104531 0.032631394841 0.032649031971 0.032667053381 0.032685414627 0.032704178179 0.032723286959 0.032742915238 0.032762709069 
0.032782342691 0.03280273526 0.032823982846 0.032845072791 0.032866457391 0.03288820453 0.032910325726 0.032932864412 0.032955822319 
0.03297935257 0.03300325748 0.03302764163 0.033052533932 0.033077866494 0.033103660625 0.033129877703 0.032170006239 0.032182342871 
0.032194848242 0.032207481017 0.032220360208 0.032233513565 0.032246678213 0.03226017033 0.032273829935 0.032287965999 0.032301909632 
0.032316028304 0.032330575126 0.032345048072 0.032359703564 0.032374528944 0.032389528825 0.032404695928 0.032420029622 0.032435287118 
0.032451014904 0.032466927487 0.032483040701 0.032499419527 0.032516016224 0.03253297233 0.032550261381 0.032567879689 0.032585348002 
0.032603645731 0.032622327215 0.032641330617 0.032660648806 0.032680505905 0.032700981162 0.032721284617 0.032741924061 0.032762881018 
0.032784239464 0.032805912633 0.032827979548 0.032850434598 0.032873295953 0.032896262159 0.032920062043 0.032944322576 0.032969028319 
0.03299423467 0.033019863322 0.033045978227 0.032103055591 0.03211553938 0.032128151826 0.032140900036 0.032154020477 0.032167160165 
0.032180352883 0.032193889957 0.032207448502 0.032221292344 0.032235230703 0.032249611237 0.032263857915 0.032278329961 0.032292978946 
0.032307783741 0.032322766959 0.032337937859 0.032353147816 0.032368715269 0.032384546225 0.032400072479 0.03241620585 0.032432606064 
0.03244925686 0.032466132036 0.032483381588 0.032500978723 0.032518874885 0.03253706026 0.032555649254 0.03257455706 0.032593799575 
0.032613843432 0.032633890952 0.032654108382 0.032674634065 0.032695553419 0.032717055657 0.032738652208 0.032760644557 0.03278306622 
0.032805914404 0.032829217479 0.032852942082 0.03287703761 0.032901760555 0.032926820588 0.032952330028 0.032978230012 0.032051535809 
0.032064129235 0.032076950478 0.032090026377 0.032103009438 0.03211620852 0.032129475734 0.032142979811 0.032156562179 0.032170523398 
0.03218436868 0.032198582488 0.03221280441 0.032227279487 0.032241906392 0.032256708813 0.032271717888 0.032286758173 0.032302117384 
0.032317672526 0.032333479018 0.03234926349 0.032365448914 0.032381877235 0.032398544493 0.032415435434 0.032432591898 0.032450131161 
0.032467938763 0.032486070357 0.032504551148 0.032523830293 0.032542972609 0.032562407909 0.032582362771 0.032602508684 0.032622982152 
0.032643817233 0.032665046569 0.032686619239 0.032708585567 0.032730974784 0.032753797418 0.032776875739 0.032800534688 0.032824671903 
0.032849347203 0.032874528884 0.032899959371 0.032925836299 0.032014960213 0.032027834211 0.032040836404 0.032053772229 0.032066800525 
0.032079965188 0.032093497312 0.032106911178 0.032120502047 0.032134539469 0.032148571898 0.032162656407 0.032176942894 0.032191499218 
0.032206120632 0.032220919167 0.032235929579 0.032251023022 0.032266410469 0.032281986252 0.032297742958 0.032313736564 0.032329802408 
0.032346214446 0.032362856002 0.032379739853 0.032396827525 0.032414287972 0.032432048382 0.032450097991 0.032468942528 0.03248762508 
0.032506663373 0.032526036463 0.032545708155 0.032565765667 0.032586184858 0.03260696923 0.032628130724 0.032649698194 0.03267165822 
0.03269403824 0.032716884674 0.032740019326 0.032763728966 0.032787926653 0.032812512783 0.032837566175 0.032863027267 0.032888875147 
0.031993982338 0.032006936354 0.032019774265 0.032032740897 0.032045833536 0.032059185707 0.032072526295 0.03208606756 0.032099948943 
0.032113705105 0.03212765302 0.032141777487 0.032156042324 0.032170511197 0.032185167417 0.032200089641 0.032215066927 0.032230302308 
0.032245743351 0.032261368718 0.0322771128 0.032293126176 0.032309196992 0.032325591012 0.03234218855 0.032359052271 0.032376121778 
0.032393439339 0.032411615093 0.032429388044 0.032447644454 0.032466219962 0.032485147096 0.032504409059 0.032523997043 0.032543961716 
0.032564526039 0.032585251748 0.032606383452 0.032627969743 0.032649948225 0.032672338264 0.032695086613 0.032718345893 0.032742095747 
0.032766294017 0.032790961456 0.032816076943 0.032841583785 0.032867544434 0.031988016306 0.032000828312 0.032013724484 0.032026723032 
0.032039866381 0.032053247481 0.032066599141 0.032080362608 0.032094072661 0.032107832487 0.032121771626 0.032135920891 0.032150208804 
0.032164690686 0.032179349906 0.03219411162 0.032209185556 0.032224566472 0.032240030723 0.032255624011 0.032271471991 0.032287468723 
0.032303736238 0.032319969196 0.03233636726 0.032353175305 0.032370195465 0.032387955801 0.032405459181 0.032423310521 0.032441454322 
0.032459938059 0.032478718542 0.03249788088 0.032517406812 0.032537297643 0.032557797104 0.032578506671 0.032599640502 0.032621237593 
0.032643230448 0.032665579922 0.032688462805 0.03271177974 0.032735597201 0.032759932365 0.032784654923 0.032809891305 0.032835527591 
0.032861644308 0.031996833742 0.032009704113 0.032022654943 0.032035721982 0.03204900191 0.032062258062 0.032075943027 0.032089419886 
0.032103132809 0.032116906052 0.032130857764 0.032145004844 0.032159325707 0.032173853119 0.032188452996 0.032203358612 0.032218511417 
0.032233845408 0.032249267627 0.032264883721 0.032280746887 0.032296769968 0.03231292496 0.032329280908 0.032345656607 0.032362387395 
0.032379868971 0.032397053095 0.032414512617 0.032432159964 0.032450181593 0.032468520388 0.032487211438 0.03250626999 0.032525737122 
0.032545551764 0.032565815589 0.032586693998 0.032607837084 0.032629451485 0.032651412265 0.032673894254 0.032696887063 0.032720303509 
0.032744279413 0.032768722811 0.032793766749 0.032819182597 0.032845033966 0.032871326231 0.032020664446 0.032033584476 0.032046610968 
0.032059829834 0.032073017957 0.032086611742 0.032099977858 0.032113439117 0.032127047829 0.032140937533 0.032154396254 0.032168566542 
0.032182929152 0.032197371337 0.032212146707 0.032226989858 0.032242204297 0.032257554676 0.032273094193 0.032288783706 0.032304663061 
0.032320771582 0.032336901343 0.032353192443 0.032369964158 0.032386647416 0.032403496558 0.032420560076 0.032437894251 0.032455437685 
0.032473251606 0.032491509557 0.032510119038 0.032529056005 0.032548422528 0.032568231004 0.032588429004 0.032609126616 0.032630449624 
0.032652000863 0.032674147519 0.032696753002 0.032720023194 0.032743596325 0.032767760099 0.032792909705 0.032818023831 0.032843673209 
0.032870082362 0.032896637651 0.032059038008 0.03207199567 0.032085063374 0.032098340311 0.032111861336 0.032125153643 0.032138487241 
0.032151955306 0.032165552159 0.032179340647 0.032193441751 0.032207460687 0.032221721832 0.032236353039 0.032251222463 0.032266319771 
0.032281586898 0.032297028808 0.032312664533 0.032328410665 0.032344294904 0.03236030214 0.03237643839 0.032393095548 0.032409575842 
0.032425995927 0.032442693874 0.032459577414 0.032476752168 0.032494181704 0.03251183364 0.032529916605 0.03254838449 0.032567220653 
0.032586539526 0.032606301534 0.032626501032 0.032647183048 0.032668627102 0.032690322016 0.032712574145 0.032735313939 0.032758605447 
0.032782380146 0.032806759128 0.032831948565 0.032857023065 0.032882975764 0.032909395435 0.032936337543 0.032112860818 0.03212586232 
0.032139088295 0.032152600973 0.032165813976 0.032179105436 0.032192432451 0.032205733331 0.032219347371 0.032233142162 0.032247129689 
0.032261469933 0.032275814912 0.032290512929 0.032305463726 0.032320665961 0.032335996685 0.032351558468 0.032367267987 0.032383090602 
0.032398970287 0.032414965938 0.032431503654 0.032447722743 0.032464022058 0.032480431558 0.032496891723 0.032513573524 0.032530559549 
0.032547823981 0.032565384187 0.032583222024 0.032601553573 0.032620286251 0.032639641981 0.03265938216 0.032679586578 0.032700243808 
0.032721494608 0.032743469366 0.032765854998 0.032788754288 0.032811894812 0.032836189017 0.03286087285 0.032886116237 0.032911871616 
0.03293820141 0.032965055198 0.032992576402 0.032181537947 0.032194710009 0.032208177632 0.032221377051 0.032234476837 0.032247763872 
0.032261077165 0.032274521197 0.032288126485 0.032301912641 0.032315923604 0.032330201967 0.032344750283 0.032359542343 0.032374613583 
0.032389881182 0.032405432035 0.032421043933 0.0324368544 0.032452726085 0.032468656892 0.032485035409 0.032501113836 0.03251722314 
0.032533402648 0.032549628264 0.032566045578 0.03258242774 0.03259927323 0.032616476258 0.03263385361 0.032651624192 0.032669664019 
0.032688280451 0.032707425747 0.032727112553 0.032747241418 0.032768008225 0.032789329361 0.032810880825 0.032833584769 0.032857058879 
0.032880767231 0.032905113229 0.032930104937 0.032955712169 0.032981902703 0.033008674306 0.033036217952 0.033064103566 0.032264780845 
0.032278210828 0.032291403886 0.032304626273 0.032317881881 0.032331176337 0.032344498539 0.032357914317 0.03237150276 0.032385300152 
0.032399216259 0.032413560704 0.032428321625 0.032443240115 0.032458396909 0.03247387255 0.032489510996 0.032505292241 0.032521175233 
0.032537100375 0.032553487912 0.032569473446 0.032585460548 0.03260144401 0.032617601075 0.03263367315 0.032649890544 0.032666075012 
0.032682620447 0.032699443747 0.032716634635 0.032734259892 0.032752284689 0.032770741586 0.032789829592 0.032809458228 0.032829245495 
0.032850056145 0.032871698407 0.032893730436 0.032916628031 0.032940023932 0.03296404255 0.032988737009 0.033014116749 0.03304018917 
0.033066899111 0.03309438171 0.033122289437 0.033150732651 0.032362154841 0.032375691537 0.032388885288 0.032402133959 0.032415393486 
0.032428692592 0.032442033432 0.03245542388 0.032469011962 0.032482690218 0.032496786198 0.032511202927 0.032525945478 0.032541135818 
0.03255643676 0.032572057672 0.032587867531 0.032603958292 0.032620349265 0.032636374328 0.032652364862 0.032668333904 0.032684186326 
0.032700040148 0.032715879883 0.03273177554 0.032747728793 0.032763880577 0.032780012673 0.032796598547 0.032813578257 0.032830977479 
0.032848831835 0.032866905842 0.032885918772 0.032905396516 0.03292593269 0.032946788642 0.032968302726 0.032990545349 0.033013412661 
0.033037620108 0.033061976638 0.03308707947 0.033112832302 0.033139386041 0.033166859777 0.033194721538 0.033223237278 0.033252284971 
0.032473269544 0.032486505212 0.032499753426 0.032513042476 0.03252633101 0.032539594807 0.032552923188 0.032566328203 0.032579912955 
0.032593745162 0.032608331022 0.032622849991 0.03263772255 0.032652851665 0.032668538805 0.032684330779 0.032700318083 0.03271681285 
0.032732921867 0.032749012009 0.032765066784 0.032780950076 0.032796751722 0.032812448123 0.032828088317 0.032843742039 0.032859454991 
0.032875335594 0.032891414471 0.032907578347 0.032923996824 0.032941600074 0.032959325154 0.032977962029 0.032996698328 0.033016242945 
0.033036517073 0.033057429917 0.033079043668 0.033101437799 0.033124584352 0.033148517754 0.03317344586 0.033198918015 0.033225260506 
0.033252170867 0.033280022792 0.033308527501 0.033337691269 0.033367324348 0.032596582316 0.032610258099 0.032623549719 0.032636855099 
0.032650148549 0.032663311908 0.032676653721 0.032689932384 0.032703520198 0.032717395808 0.032731626481 0.032746230087 0.032761159183 
0.03277653335 0.032792392676 0.032808381464 0.032824949351 0.032841201858 0.032857436353 0.032873588062 0.032889620279 0.032905492017 
0.032921203577 0.032936761824 0.032952618719 0.032968019051 0.032983477199 0.032998749944 0.033014550905 0.033030664541 0.033047324823 
0.033064344024 0.033081938717 0.033100076748 0.033118922221 0.033138389427 0.033158634797 0.033179594335 0.033201366557 0.033223956961 
0.033247343478 0.033271569866 0.033296901859 0.033322812473 0.033349849277 0.033377503555 0.033405985742 0.033435139272 0.03346493608 
0.033495223452 0.032730681332 0.032743986564 0.032757339254 0.032770637751 0.032783935196 0.032797235915 0.032810447535 0.032823878967 
0.032837486499 0.032851412294 0.032865735652 0.032880302342 0.032895447838 0.032911001525 0.032926909493 0.032943597068 0.032959952532 
0.032976348734 0.032993132378 0.03300931236 0.033025366372 0.033041189967 0.033056791382 0.033072199029 0.033087458819 0.03310231177 
0.033117520052 0.033133158884 0.033148715694 0.033164603788 0.033180921459 0.03319759032 0.033214964299 0.033233078777 0.033251896535 
0.033271452552 0.03329162142 0.033312698528 0.03333455418 0.033357297311 0.033380913577 0.033405453804 0.033430957795 0.033457732447 
0.033485054127 0.033513256766 0.033542320936 0.033572134637 0.033602570429 0.03363403222 0.032872926971 0.032886264746 0.032899650665 
0.032912967979 0.032926287979 0.032939628687 0.032952868757 0.032966355793 0.032980043975 0.032994036259 0.03300836665 0.033023212197 
0.033038522398 0.033054675271 0.03307116068 0.033087511368 0.033104087583 0.03312065846 0.033137071223 0.033153340021 0.033169358582 
0.033185120507 0.033200281004 0.033215537997 0.033230597178 0.033245871698 0.033260851786 0.033275949947 0.033291270643 0.033306975008 