# vtk DataFile Version 5.1
vtk output
ASCII
DATASET STRUCTURED_POINTS
DIMENSIONS 20 20 20
SPACING 0.005 0.005 0.005
ORIGIN 0.2189 -0.051172 0.02882
POINT_DATA 8000
FIELD FieldData 1
potential 1 8000 double
0.00065767978068 0.00064824268228 0.00063896861456 0.00062988022984 0.00062100191128 0.00061234499855 0.00060390926557 0.00059568802768 0.00058767627903 
0.00057987898989 0.00057230500188 0.00056495786127 0.00055783317175 0.00055091747419 0.00054419480654 0.00053764752749 0.0005312564748 0.00052500738676 
0.00051888921654 0.00051288627059 0.00066557003576 0.00065594572954 0.00064648540682 0.00063721702791 0.00062816616747 0.0006193467922 0.00061075931372 
0.00060239458826 0.00059424760649 0.00058631938409 0.00057861681401 0.00057114537066 0.0005639021078 0.00055687551305 0.00055004669665 0.00054339469705 
0.00053689862954 0.00053053926698 0.00052430699528 0.00051819050529 0.00067162871844 0.00066185775488 0.00065225032401 0.00064283647332 0.00063364329023 
0.00062468852457 0.00061597355457 0.00060749100746 0.00059923343584 0.00059119764819 0.00058338824589 0.00057581063133 0.00056846417037 0.00056133733448 
0.00055441412044 0.00054766747048 0.00054107216645 0.00053460801518 0.00052826611887 0.00052204107162 0.00067571305725 0.00066583858956 0.00065612896693 
0.0006466105838 0.00063731288239 0.00062825482951 0.0006194411383 0.00061086600689 0.00060252102263 0.00059439982219 0.00058650380685 0.0005788391449 
0.00057140587927 0.00056419360766 0.00055718447472 0.00055035120884 0.00054366495115 0.00053710676142 0.00053066732852 0.00052434665422 0.00067822301596 
0.00066828202508 0.00065850879208 0.00064892543937 0.00063955767073 0.00063042535992 0.00062153656414 0.00061288853023 0.00060447251442 0.00059628172949 
0.00058831684585 0.0005805798353 0.00057307222182 0.0005657824577 0.00055869260907 0.00055177661448 0.00054500665785 0.00053836600524 0.00053184428914 
0.00052544479822 0.00067991201749 0.00066992834224 0.00066011676916 0.00065049306678 0.00064107931615 0.00063189169929 0.00062294296658 0.00061423284702 
0.00060575547568 0.00059750505915 0.00058947984432 0.00058168003696 0.00057410334685 0.00056673803716 0.00055956773303 0.0005525684683 0.00054571865794 
0.0005390017317 0.00053240909429 0.00052594312152 0.00068158186929 0.00067155702086 0.00066171155948 0.00065205498664 0.0006426021967 0.00063336897272 
0.0006243660783 0.00061559804644 0.00060706318664 0.00059875625925 0.00059067428524 0.0005828136933 0.00057516749041 0.00056772494949 0.00056047106944 
0.00055338651816 0.00054645589663 0.00053966396875 0.00053300353528 0.00052647302257 0.00068383697661 0.00067375588139 0.00066386553356 0.00065416741036 
0.00064467039866 0.00063538730715 0.000626331205 0.00061750726635 0.00060891687416 0.00060055314166 0.00059241259785 0.00058448754697 0.00057676831017 
0.00056924473454 0.00056190346376 0.00055473157343 0.00054771541923 0.00054084342149 0.00053410924577 0.00052750940215 0.00068702069099 0.00067685999514 
0.00066690333967 0.00065714627629 0.00064759335477 0.00063825525864 0.0006291425142 0.00062026158881 0.00061161296016 0.00060319183321 0.00059498831464 
0.00058699339828 0.00057919572883 0.00057158623542 0.00056415381596 0.00055688938152 0.00054978170195 0.00054282053395 0.0005360012831 0.00052931828867 
0.00069127242472 0.00068101248531 0.00067096593758 0.00066113212605 0.00065151007915 0.00064210860566 0.00063293481794 0.00062399468108 0.00061528696104 
0.00060680423095 0.00059853291042 0.00059046122724 0.00058257988325 0.00057487831708 0.00056734990671 0.00055998624704 0.00055277739483 0.00054571727322 
0.00053879837768 0.00053201714961 0.00069663793787 0.00068625344219 0.0006760996707 0.00066617101957 0.000656467273 0.00064699440355 0.00063775673679 
0.00062875441507 0.00061998403491 0.00061143313342 0.00060308832841 0.00059493520672 0.00058696285819 0.00057916299169 0.0005715300701 0.00056405923573 
0.00055674066228 0.00054956911294 0.00054253810895 0.00053564412705 0.00070312533042 0.00069259565763 0.00068231563179 0.00067227509434 0.00066247943064 
0.00065292738709 0.00064361910986 0.00063454972015 0.00062570975313 0.00061708509704 0.00060865902907 0.00060041642018 0.00059234763008 0.00058444365606 
0.00057670066228 0.00056911383902 0.00056167674133 0.0005543821167 0.00054722606476 0.00054020653475 0.00071074695143 0.00070004952528 0.00068961904854 
0.00067945228691 0.00066954611502 0.00065990354369 0.00065051517827 0.00064136856738 0.0006324495967 0.00062373985482 0.00061522402911 0.00060688612694 
0.00059871542047 0.00059070401756 0.00058284587063 0.00057513815929 0.0005675736497 0.00056014758929 0.00055285709267 0.00054570049198 0.00071949949103 
0.00070860967582 0.00069800472604 0.00068768509767 0.00067765291073 0.00066789896614 0.00065841452427 0.0006491754027 0.00064016061594 0.00063135259691 
0.00062273457816 0.00061429470429 0.00060602044564 0.00059790146807 0.00058992999054 0.0005820976392 0.00057440193053 0.00056683775833 0.0005594044638 
0.00055210301346 0.00072930804499 0.000718198431 0.00070739042774 0.00069689207493 0.0006867066709 0.00067682167644 0.00066722027331 0.00065786841404 
0.0006487400619 0.00063981793746 0.00063108750484 0.00062253908306 0.00061415981316 0.000605935988 0.00059785279274 0.00058990008339 0.00058207045846 
0.00057436430267 0.00056678245475 0.00055933048412 0.00073992187213 0.00072857090164 0.00071753619051 0.00070683431631 0.00069647116899 0.00068643491315 
0.00067669049656 0.00066720630515 0.00065794838772 0.00064889941087 0.00064004796463 0.00063138662863 0.00062290108946 0.00061457398109 0.00060638367385 
0.00059831289344 0.00059035316806 0.00058250447504 0.00057477204692 0.00056716532535 0.00075080855038 0.00073920488083 0.00072793276488 0.00071701422201 
0.000706459121 0.00069625286799 0.00068635768357 0.00067672672013 0.00066733310029 0.00065815244346 0.00064917847618 0.00064040087509 0.0006318068368 
0.0006233740806 0.00061507691004 0.00060689163895 0.00059880503397 0.00059081755742 0.00058293903276 0.00057518163511 0.00076113867696 0.00074929570956 
0.00073779464658 0.00072666508243 0.0007159194019 0.00070554299422 0.00069549457833 0.00068572504352 0.00067620074033 0.00066689703233 0.00065780417532 
0.00064891151789 0.00064020649577 0.00063166469752 0.00062325834902 0.00061495940822 0.00060675380382 0.00059863967938 0.00059062845904 0.00058273359437 
0.00076998553815 0.00075792080218 0.0007462218913 0.00073490701397 0.00072399190479 0.00071346135506 0.00070327828437 0.00069339184385 0.00068375392313 
0.0006743438066 0.0006651443986 0.0006561437711 0.00064732879133 0.00063867548646 0.00063015876591 0.00062175177575 0.00061343897531 0.00060521673014 
0.00059709413854 0.00058908351196 0.00077660908018 0.00076438300181 0.00075252999582 0.00074107104905 0.00073002207431 0.00071937093644 0.0007090803554 
0.00069909956234 0.00068937872529 0.0006798791381 0.00067058742736 0.0006614888754 0.00065257039099 0.00064381224305 0.00063519129971 0.00062668628293 
0.00061828302823 0.00060997550261 0.0006017676011 0.00059366839597 0.00075693420463 0.00074621118388 0.00073569145727 0.00072538317181 0.00071529910433 
0.00070544725135 0.00069582978497 0.00068644503596 0.0006772915321 0.00066836988797 0.00065968019356 0.00065122176319 0.00064298896672 0.00063497159741 
0.00062715637255 0.00061953058837 0.00061207833916 0.00060478622315 0.00059764346805 0.00059063752572 0.00076482223898 0.00075390828096 0.00074320242179 
0.0007327139665 0.00072245702049 0.0007124396173 0.00070266448069 0.00069312903663 0.00068383071228 0.00067476845099 0.00066594258742 0.00065735234768 
0.0006489923782 0.00064085299504 0.00063291883893 0.00062517705749 0.00061761059596 0.0006102041097 0.00060294669665 0.00059582891798 0.00077158336731 
0.00076050338714 0.00074963496584 0.00073898828468 0.00072857741152 0.00071841220694 0.00070849584449 0.00069882508491 0.00068939666832 0.00068020812315 
0.00067125924628 0.00066254852686 0.00065407075051 0.00064581592258 0.00063777098283 0.00062991858009 0.00062224131917 0.0006147233402 0.00060735483355 
0.00060012802607 0.00077714284271 0.00076592277523 0.00075491853921 0.00074413850824 0.0007335972508 0.00072330469341 0.00071326459866 0.00070347475133 
0.00069393140654 0.00068463143425 0.00067557180484 0.00066675149548 0.00065816608301 0.00064980453837 0.00064165433735 0.0006336969105 0.00062591310679 
0.00061828968425 0.00061081613136 0.00060348708656 0.00078171369754 0.00077037663577 0.00075925915627 0.00074836917217 0.00073771839014 0.00072731682029 
0.00071716917501 0.00070727437487 0.00069762878395 0.00068822820075 0.00067906944289 0.00067014965058 0.00066146405615 0.00065300159279 0.0006447497603 
0.00063669073143 0.00062880557438 0.0006210825837 0.00061351123446 0.00060608757326 0.00078571676777 0.00077427673517 0.00076306142353 0.00075207648161 
0.000741331239 0.0007308337966 0.00072058967424 0.00071059942064 0.00070085992187 0.0006913663564 0.00068211542123 0.0006731021871 0.00066432085818 
0.0006557602479 0.00064740877019 0.0006392489375 0.00063126561992 0.00062344606769 0.00061578096146 0.00060826760745 0.00078963016201 0.0007780898918 
0.00076678200988 0.00075570830222 0.00074487510443 0.00073428886146 0.00072395450908 0.00071387416198 0.00070404395133 0.00069446148644 0.0006851210084 
0.00067601624503 0.00066713990658 0.00065848162453 0.00065002921029 0.00064176869474 0.00063368568588 0.00062577014846 0.00061801309867 0.00061041011047 
0.00079386658705 0.00078222009591 0.00077081505346 0.00075964981788 0.00074872651136 0.00073805114824 0.00072762774334 0.00071745828823 0.00070754059402 
0.00069786912232 0.00068843883843 0.00067924251793 0.00067026917489 0.00066151091798 0.00065295510298 0.00064459097422 0.00063640618971 0.00062839058061 
0.00062053804659 0.00061284233979 0.00079871356525 0.00078694728347 0.00077543331536 0.00076416682144 0.000753147589 0.00074237947554 0.0007318646982 
0.00072160534756 0.00071159806665 0.00070183779583 0.00069231572846 0.00068302350837 0.00067395081032 0.00066508823902 0.00065642617322 0.00064795467231 
0.00063966253439 0.00063154131106 0.0006235856436 0.0006157882956 0.00080433259996 0.00079243243706 0.00078079605495 0.00076941636473 0.00075829217181 
0.00074742463984 0.00073681524593 0.00072646331032 0.00071636448334 0.00070651197156 0.00069689421191 0.00068750269546 0.00067832526888 0.00066935522371 
0.0006605816569 0.00065199668409 0.00064359192182 0.00063535742027 0.00062728927978 0.000619380792 0.00081080676793 0.00079875892019 0.00078698329814 
0.00077547730037 0.00076423727375 0.00075326361557 0.0007425540052 0.00073210451844 0.00072190955878 0.00071195939901 0.0007022423511 0.00069274624394 
0.00068346065994 0.00067437694732 0.00066548724554 0.000656783965 0.00064825799268 0.00063990313362 0.00063171395044 0.00062368383196 0.00081816793684 
0.00080595074004 0.00079402474448 0.00078237723197 0.00077101150802 0.00075992271339 0.00074910579902 0.0007385531599 0.00072825600237 0.00071820181317 
0.0007083791759 0.00069877308767 0.00068937430554 0.00068017343034 0.00067116268645 0.00066233406467 0.00065368170614 0.00064519743385 0.00063687781105 
0.00062871783518 0.00082640578109 0.00081400459091 0.00080190785356 0.00079010895775 0.00077860209171 0.00076738685439 0.00075645325433 0.00074578935733 
0.00073538259561 0.00072521771657 0.00071528236329 0.00070556096506 0.00069604445076 0.00068672306873 0.00067758670646 0.00066862957952 0.00065984454918 
0.00065122469083 0.00064276808971 0.00063446903864 0.00083547300333 0.00082286965045 0.000810585849 0.00079861602575 0.00078695800034 0.00077560076912 
0.00076453819212 0.00075375090603 0.00074322407478 0.0007329393895 0.00072288352512 0.00071304263977 0.00070340567857 0.00069396112364 0.00068469912734 
0.00067561053392 0.00066668933528 0.00065792954548 0.00064932956944 0.00064088684765 0.00084524194201 0.00083242112363 0.00081993298727 0.00080777669628 
0.00079594810585 0.00078443709507 0.00077323224566 0.00076231113357 0.00075165206417 0.0007412386163 0.0007310557771 0.00072109081372 0.00071133111889 
0.00070176275279 0.0006923743543 0.00068315354271 0.00067409534178 0.00066519374868 0.00065644832213 0.00064785736535 0.00085546795085 0.00084241727358 
0.00082971145148 0.00081735362794 0.00080534245376 0.00079366809749 0.00078230566651 0.000771238004 0.00076043847316 0.00074988845845 0.00073957380553 
0.00072948164502 0.0007195976825 0.00070990624793 0.00070039248746 0.00069104262528 0.00068184834485 0.00067280548547 0.00066391349311 0.00065517382282 
0.00086574875521 0.00085246419577 0.00083953701922 0.00082697245558 0.00081477140883 0.0008029230469 0.00079140287504 0.00078018065497 0.00076923694938 
0.00075854904888 0.00074810130382 0.00073788027285 0.00072787089147 0.00071805573149 0.00070841806063 0.00069894077997 0.00068961391386 0.00068043275865 
0.00067139832348 0.00066251515195 0.00087556071574 0.00086205042292 0.00084890786512 0.00083614204698 0.00082375445358 0.00081173372979 0.00080005498477 
0.00078868449275 0.00077760060731 0.000766777466 0.00075619954581 0.00074585107062 0.00073571679306 0.00072577839759 0.00071601763518 0.00070641556133 
0.00069696180023 0.00068765075864 0.00067848355527 0.00066946354451 0.00088437753766 0.0008706478721 0.00085730899902 0.00084435698308 0.0008317970915 
0.00081961519048 0.000807789589 0.00079628460831 0.00078506706553 0.00077411747643 0.00076341552067 0.00075294358264 0.00074268766156 0.00073262813273 
0.00072274666895 0.00071302595599 0.00070345382295 0.00069402448617 0.00068473798022 0.00067559612096 0.00089178525574 0.00087787796701 0.0008643701543 
0.00085125809683 0.00083854666934 0.00082622313078 0.00081426572619 0.00080263768752 0.00079130502955 0.0007802375795 0.00076941928874 0.00075883094547 
0.00074845765419 0.00073828260772 0.00072828649921 0.00071845479329 0.00070877557649 0.00069924212969 0.00068985104673 0.00068060475404 0.00085681596569 
0.00084477953445 0.00083298220038 0.00082142633995 0.00081011604759 0.00079905643953 0.0007882482312 0.00077769117481 0.00076738349972 0.00075732418969 
0.00074750954615 0.00073793661271 0.0007285983245 0.00071948641532 0.00071058939489 0.00070189615706 0.00069339380622 0.00068507105135 0.00067691586715 
0.00066891840052 0.00086505519327 0.00085281610922 0.00084082389272 0.00082907874952 0.00081758659502 0.00080635149442 0.00079537513403 0.00078465593965 
0.000774191277 0.00076397937057 0.0007540176102 0.00074430124108 0.00073482451411 0.0007255783887 0.00071654940613 0.00070772881238 0.00069910150237 
0.00069065538151 0.00068237904971 0.00067426422282 0.00087259541311 0.00086016991065 0.00084799674416 0.00083607541648 0.00082441402039 0.00081301494526 
0.00080188054819 0.00079100883811 0.00078039700334 0.00077004142158 0.00075993988029 0.00075008802366 0.00074047806286 0.00073110196305 0.00072194652145 
0.00071300114786 0.00070425111707 0.00069568337348 0.00068728846234 0.00067905707554 0.00087939476055 0.00086679836772 0.00085445965768 0.000842378805 
0.00083056180554 0.00081901219045 0.00080773136998 0.00079671739364 0.00078596766108 0.00077547833217 0.0007652453692 0.00075526427864 0.00074552761229 
0.00073602583043 0.00072674861718 0.00071768181361 0.00070881172015 0.00070012613618 0.00069161495884 0.00068327099853 0.00088557279728 0.0008728204105 
0.00086033059164 0.00084810411145 0.00083614468498 0.00082445562876 0.00081303929047 0.00080189274512 0.00079101422913 0.00078039869205 0.00077004128189 
0.0007599373701 0.00075007911401 0.00074045646362 0.00073105947195 0.00072187374664 0.00071288681534 0.00070408537738 0.00069546151782 0.00068700812472 
0.00089137626115 0.00087847634865 0.00086584497876 0.00085348227424 0.00084138983912 0.00082957108635 0.00081802629384 0.00080675523913 0.00079575342757 
0.00078501720764 0.00077454102889 0.00076431839236 0.00075434137431 0.00074460030314 0.00073508468478 0.00072578138341 0.00071667811945 0.00070776317233 
0.00069902885244 0.00069046796609 0.00089709982486 0.00088405457947 0.00087128605452 0.00085879204564 0.00084657162456 0.00083462809135 0.00082296000857 
0.00081156792417 0.00080044666464 0.00078959271218 0.00077899953619 0.00076866011921 0.00075856510447 0.00074870625832 0.00073907165787 0.00072965093405 
0.00072043120661 0.0007114018359 0.00070255672792 0.00069388782758 0.0009030220815 0.0008898293101 0.00087692157652 0.00086429426001 0.00085194611925 
0.00083987775497 0.00082808760062 0.00081657578177 0.0008053370119 0.0007943657636 0.000783656428 0.00077320001327 0.00076298671291 0.00075300818373 
0.00074325384233 0.00073371299863 0.000724374553 0.00071522947197 0.00070626985528 0.00069748951137 0.00090936272009 0.00089601359856 0.00088295959146 
0.00087019389679 0.00085771384737 0.00084551789009 0.00083360510393 0.00082197227183 0.0008106151871 0.00079952646525 0.00078869877961 0.00077812325751 
0.00076778918179 0.00075768891141 0.00074781190144 0.00073814798804 0.00072868731931 0.00071942099709 0.00071034305252 0.00070144546121 0.00091626389502 
0.0009027486952 0.00088953948246 0.00087662769091 0.00086400911482 0.00085168190409 0.00083964176053 0.00082788571963 0.00081640710945 0.00080519884188 
0.00079425089156 0.00078355314871 0.00077309555597 0.00076287039315 0.00075286644505 0.00074307535221 0.00073348802924 0.00072409564273 0.00071489281129 
0.00070587143389 0.00092380977822 0.00091011954629 0.00089674289541 0.00088367388113 0.00087090960605 0.00085844411201 0.00084627235947 0.00083438848758 
0.00082278492337 0.00081145271982 0.0008003804305 0.00078955737062 0.000778972685 0.00076861813837 0.00075848413564 0.00074856159348 0.00073884223563 
0.00072931844357 0.00071998409268 0.00071083201847 0.00093203499119 0.00091815279293 0.00090460030074 0.00089136373524 0.00087844404685 0.00086583277879 
0.00085352270793 0.00084150581803 0.00082977209754 0.00081831006009 0.00080710942974 0.0007961568835 0.00078544158821 0.00077495455288 0.00076468614539 
0.00075462777535 0.00074477158465 0.00073510970071 0.00072563792819 0.0007163493405 0.00094092158979 0.00092683638451 0.00091309391349 0.00089968177208 
0.0008865947512 0.00087382893502 0.00086137340404 0.00084921656751 0.00083734682432 0.00082575066983 0.00081441650238 0.00080332934693 0.00079247998133 
0.00078185676501 0.00077145135163 0.00076125392456 0.00075125696651 0.00074145330506 0.00073183873479 0.00072240580879 0.00095040915496 0.00093610932888 
0.00092216358165 0.00090856363767 0.00089530030643 0.00088237088506 0.00086976005068 0.00085745541265 0.00084544232269 0.00083370565309 0.00082223270115 
0.00081100722414 0.0008000205566 0.0007892609825 0.00077871600369 0.00076837731349 0.00075823691006 0.0007482874834 0.00073852577444 0.00072894689147 
0.00096037082984 0.00094584603294 0.00093168778843 0.00091788868985 0.00090444135245 0.00089133524527 0.00087856152871 0.00086610123435 0.00085393785321 
0.00084205581049 0.00083043879343 0.00081907381886 0.00080794627896 0.00079704677971 0.0007863620987 0.00077588146232 0.00076559690881 0.00075550161692 
0.0007455915702 0.00073586326841 0.00097060317146 0.00095584645214 0.0009414671352 0.00092746072823 0.00091382017735 0.00090053621781 0.00088758893297 
0.00087496665524 0.00086264749819 0.00085061427004 0.00083884996537 0.000827342264 0.00081607583422 0.00080503677706 0.00079421257948 0.0007835903827 
0.00077316232921 0.00076292074523 0.00075286289121 0.00074298499433 0.00098081600064 0.00096582664944 0.00095122529961 0.0009370081878 0.00092317127047 
0.00090970277378 0.00089658529002 0.00088379586492 0.00087131848631 0.00085913314226 0.00084722177519 0.0008355705093 0.00082416268344 0.00081298494117 
0.00080202213399 0.00079126054101 0.00078069120884 0.00077030668534 0.00076010359522 0.00075008104831 0.00099067317505 0.00097545620519 0.00096063776782 
0.00094621514455 0.00093218413463 0.00091853343581 0.00090524474597 0.00089229187817 0.0008796593459 0.00086732347115 0.00085526666305 0.0008434725478 
0.00083192547339 0.00082061005134 0.00080951014112 0.00079861190221 0.00078790554242 0.00077738426917 0.00076704238521 0.00075687973043 0.0009998652222 
0.0009844202735 0.00096939671035 0.00095477784231 0.00094056187554 0.00092673717997 0.00091328311528 0.00090017700178 0.00088739130471 0.00087490963828 
0.00086271072675 0.00085077729401 0.00083909322622 0.00082764222218 0.00081640903834 0.00080537917025 0.00079454195076 0.00078389059755 0.00077341920514 
0.0007631262083 0.0010081443726 0.00099250214482 0.00097729017017 0.00096249154818 0.00094810403325 0.00093411446542 0.00092050576764 0.00090725216155 
0.00089432286388 0.00088170233626 0.00086936594462 0.00085729744026 0.00084548049731 0.00083389773428 0.00082253542728 0.00081137985065 0.00080041961267 
0.00078964722179 0.00077905683688 0.00076864464877 0.00095698702332 0.00094362320285 0.0009305332399 0.0009177133564 0.00090516470215 0.00089288837364 
0.00088088340018 0.0008691484447 0.00085768147461 0.00084647894251 0.0008355370817 0.00082485045954 0.00081441145947 0.00080421221081 0.00079424215394 
0.00078449287757 0.00077495116867 0.00076560688756 0.00075644974348 0.00074746991241 0.00096577426883 0.00095219302779 0.0009388929532 0.00092587023801 
0.00091312631553 0.0009006608159 0.000888473818 0.00087656275704 0.00086492507958 0.00085355688572 0.00084245423903 0.00083161109032 0.00082102079464 
0.00081067395412 0.00080055960371 0.00079066982321 0.0007809916144 0.00077151410779 0.00076222627085 0.00075311979104 0.00097413238649 0.00096034266194 
0.00094684184985 0.00093362483693 0.00092069307042 0.00090804590562 0.00089568308341 0.00088360235219 0.00087179977383 0.00086027129697 0.0008490126541 
0.00083801779198 0.0008272789079 0.00081678777685 0.00080653191819 0.00079650388801 0.00078669031739 0.00077707993371 0.00076766225761 0.00075843008137 
0.00098203491001 0.00096804831129 0.00095435592628 0.00094095397979 0.0009278430253 0.00091502250008 0.00090249129074 0.00089024739946 0.0008782865044 
0.00086660339888 0.00085519429342 0.00084405183053 0.00083316863161 0.00082253471426 0.00081214156937 0.00080197692334 0.00079202945705 0.00078228779013 
0.00077274228896 0.00076338534182 0.00098955573047 0.00097537973704 0.00096150448131 0.00094792639254 0.00093464396895 0.00092165773188 0.00090896564351 
0.00089656440819 0.00088445083008 0.00087261905235 0.00086106370883 0.00084977787844 0.00083875329783 0.00082798036895 0.0008174503571 0.00080715021017 
0.00079707064502 0.00078719899352 0.00077752699995 0.0007680468357 0.00099684242459 0.00098248223717 0.00096842983645 0.00095468180271 0.00094123495173 
0.00092808865102 0.00091524019905 0.00090268735492 0.00089042504244 0.00087844817197 0.00086674987093 0.00085532315425 0.00084415978782 0.00083324927036 
0.0008225830395 0.00081214949651 0.00080193762343 0.00079193641803 0.00078213831169 0.00077253526932 0.0010040809947 0.00098953853794 0.00097531296297 
0.00096139767604 0.00094778990928 0.0009344866275 0.00092148585143 0.00090878389171 0.00089637553881 0.00088425557003 0.00087241657716 0.00086085049349 
0.00084954796524 0.0008385008307 0.00082769808462 0.00081713016379 0.00080678567881 0.00079665434503 0.00078672918041 0.00077700214966 0.0010114606621 
0.00099673479904 0.00098233407996 0.00096825104181 0.00095448136878 0.00094102272031 0.00092787045466 0.0009150201449 0.0009024666568 0.00089020421167 
0.00087822443086 0.00086651872955 0.00085507784402 0.00084389237347 0.00083295265768 0.00082224895652 0.00081176971839 0.00080150695207 0.00079145194634 
0.00078159804186 0.0010191389903 0.0010042254345 0.00098964548862 0.00097539099265 0.00096145753959 0.00094784015172 0.00093453462864 0.00092153608593 
0.00090883797232 0.00089643148193 0.00088431041333 0.00087246383915 0.00086088167207 0.00084955678552 0.00083847780178 0.00082763516167 0.00081701949574 
0.00080662133186 0.00079643341688 0.00078644798678 0.0010272334009 0.0010121223689 0.0009973559272 0.00098292514619 0.00096882317739 0.00095504492977 
0.00094158306177 0.00092843329211 0.00091558729397 0.00090303559225 0.00089077025585 0.00087878098201 0.00086705669355 0.00085558906966 0.00084436779232 
0.00083338386495 0.00082262779211 0.00081209043913 0.00080176503293 0.00079164400717 0.0010358098478 0.0010204969923 0.0010055354632 0.00099092019658 
0.00097664372424 0.00096269813181 0.00094907626312 0.0009357717675 0.00092277418082 0.00091007525294 0.00089766314996 0.00088552744597 0.00087365778801 
0.00086204528158 0.00085067899062 0.00083955002046 0.00082864946311 0.00081796933875 0.00080750166239 0.00079724040812 0.0010448975823 0.0010293718462 
0.0010142106746 0.00099940151785 0.00098494313115 0.00097082502926 0.00095703852641 0.00094357378044 0.00093042090623 0.00091756954111 0.00090500704259 
0.00089272283504 0.00088070507854 0.00086894359534 0.00085742952153 0.0008461523126 0.00083510380963 0.00082427627787 0.00081366272269 0.00080325494682 
0.0010544832209 0.0010387324882 0.00102336041 0.0010083538276 0.00099370418724 0.00097940662579 0.00096544871867 0.00095181993678 0.00093850732188 
0.00092549881177 0.00091278332967 0.00090034618745 0.0008881770104 0.00087626488719 0.00086459986711 0.00085317187874 0.00084197282103 0.00083099419857 
0.00082023055619 0.00080967337264 0.0010645038376 0.0010485219266 0.0010329303527 0.0010177158927 0.0010028694497 0.0009883856081 0.00097424970682 
0.00096045029497 0.00094697350313 0.00093380463631 0.00092093074591 0.00090833791409 0.0008960155086 0.00088395149273 0.0008721338773 0.00086055392255 
0.00084920118989 0.00083806907211 0.00082715212574 0.00081644254014 0.0010748527331 0.0010586329991 0.0010428146135 0.0010273864028 0.0010123385746 
0.00099765949702 0.00098334063779 0.00096936544513 0.00095571908523 0.000942385602 0.00092935135415 0.00091660095623 0.00090412284494 0.00089190391217 
0.00087993345137 0.00086819958532 0.00085669387604 0.00084540876053 0.0008343375551 0.00082347370798 0.0010853727388 0.0010689109554 0.001052861682 
0.0010372140724 0.0010219585683 0.0010070847831 0.00099257595783 0.00097842138183 0.00096460181533 0.00095110126164 0.00093790347606 0.00092499480315 
0.00091236021375 0.00089998683707 0.00088786270702 0.00087597616067 0.00086431752571 0.00085287847196 0.0008416533758 0.00083063660423 0.0010958589349 
0.0010791561429 0.0010628744374 0.0010470061323 0.0010315411182 0.0010164686732 0.0010017703717 0.00098743575506 0.00097344152414 0.0009597724364 
0.00094641091468 0.00093334319713 0.0009205518255 0.00090802496753 0.00089574834365 0.00088370973041 0.00087189975607 0.00086030952835 0.00084893310277 
0.00083776626361 0.0011060928701 0.0010891514454 0.0010726420627 0.0010565557088 0.0010408843361 0.0010256142277 0.0010107305143 0.00099621214111 
0.00098204532054 0.00096820915567 0.00095468563066 0.00094145818436 0.00092851215564 0.00091583277167 0.00090340489691 0.00089121717289 0.00087925923749 
0.0008675218035 0.00085599809629 0.00084468474648 0.0011158856649 0.0010987012794 0.0010819714666 0.0010656729145 0.0010498006039 0.0010343380113 
0.0010192712855 0.0010045798028 0.00099024048544 0.00097623926409 0.00096255488917 0.00094917125402 0.00093607168696 0.00092324144592 0.00091066596484 
0.0008983324036 0.00088623054276 0.00087435121036 0.00086268654264 0.00085123335953 0.0011250779626 0.0011076763676 0.0010907365503 0.0010742371121 
0.0010581704645 0.0010425224502 0.0010272780461 0.0010124152376 0.00099791110072 0.00098374833168 0.00096990709617 0.00095636941392 0.00094312016228 
0.00093014144728 0.00091742138553 0.00090494658557 0.00089270601254 0.00088069063636 0.00086889290771 0.0008573070638 0.0010572099209 0.0010425139703 
0.0010281241364 0.0010140331656 0.0010002401923 0.00098674174902 0.00097353741868 0.00096062317176 0.00094799563464 0.0009356500816 0.00092358204913 
0.00091178476957 0.0009002509553 0.00088897207205 0.0008779386601 0.00086714199619 0.00085657076174 0.00084621558071 0.00083606600836 0.00082611264982 
0.0010666589175 0.0010517279514 0.0010371106384 0.0010228008791 0.0010087956454 0.00099509369377 0.00098169114972 0.00096858517457 0.00095577197806 
0.00094324654006 0.00093100306802 0.00091903594319 0.00090733656835 0.0008958963681 0.00088470553931 0.00087375593138 0.00086303639533 0.00085253553336 
0.00084224471969 0.00083215396683 0.0010758529195 0.0010606932578 0.0010458544478 0.0010313303339 0.0010171184343 0.0010032161035 0.00098961964566 
0.00097632626529 0.00096333066037 0.00095062826869 0.00093821303327 0.00092607773092 0.00091421486162 0.00090261549395 0.00089126922037 0.00088016757789 
0.00086929936149 0.00085865376978 0.00084822161005 0.00083799393427 0.00108477863 0.0010693949288 0.001054340106 0.0010396077791 0.0010251944078 
0.0010110962123 0.00099731069808 0.00098383382866 0.00097066040551 0.00095778410837 0.00094519971922 0.00093289965228 0.00092087547575 0.00090911763191 
0.00089761786126 0.0008863654172 0.0008753499362 0.0008645601411 0.00085398705103 0.00084362219939 0.0010934776943 0.0010778756582 0.0010626110043 
0.0010476740302 0.0010330636375 0.0010187756517 0.001004805381 0.00099114886943 0.00097780027653 0.00096475406042 0.00095200404826 0.00093954130606 
0.00092735768132 0.00091544379849 0.00090379058146 0.00089238813143 0.0008812249945 0.00087029194616 0.00085957828551 0.00084907729728 0.0011020431237 
0.0010862262002 0.0010707537476 0.0010556182689 0.0010408147568 0.0010263394757 0.0010121883915 0.00099835493115 0.0009848351451 0.00097162139592 
0.00095870673457 0.00094608277769 0.00093374139488 0.00092167190397 0.00090986631022 0.00089831422186 0.00088700379781 0.00087592612002 0.00086507239498 
0.00085443432401 0.0011105962658 0.0010945652173 0.0010788870442 0.001063553663 0.0010485598258 0.0010338997173 0.001019569239 0.0010055614056 
0.00099187147335 0.00097849147738 0.00096541409998 0.00095262995514 0.00094013043561 0.00092790578867 0.00091594752904 0.00090424461497 0.0008927860823 
0.0008815636944 0.00087056830897 0.00085979143883 0.0011192627781 0.0011030167849 0.0010871321778 0.0010716005094 0.001056415778 0.0010415716198 
0.0010270620898 0.0010128804637 0.00099902033712 0.00098547463138 0.00097223416423 0.00095928958212 0.00094663206936 0.00093425205939 0.00092213945866 