# vtk DataFile Version 5.1
vtk output
ASCII
DATASET STRUCTURED_POINTS
DIMENSIONS 20 20 20
SPACING 0.005 0.005 0.005
ORIGIN 0.2189 -0.051172 0.02882
POINT_DATA 8000
FIELD FieldData 1
potential 1 8000 double
0.0058376358401 0.0058891372256 0.0059358084095 0.0059777152611 0.0060148876452 0.0060471760283 0.0060743131197 0.0060959926287 0.0061119973894 
0.0061223219103 0.0061270760152 0.0061263761959 0.0061202912752 0.0061087968514 0.0060918913519 0.006069545183 0.006041746418 0.0060085591186 
0.0059700829569 0.0059264101323 0.0061586139856 0.0062151342231 0.0062663395823 0.0063123192877 0.0063530877048 0.0063885213932 0.0064183537028 
0.0064422373118 0.0064599437958 0.0064713916612 0.0064766708507 0.0064759023178 0.0064691806687 0.0064565044097 0.0064378383839 0.0064131370528 
0.0063823742426 0.0063455648163 0.006302876068 0.0062544757655 0.0064846033655 0.0065467245381 0.0066030009388 0.0066535352426 0.0066983277265 
0.0067372562126 0.0067700659498 0.0067963972898 0.0068159920156 0.0068286862391 0.006834546694 0.0068336632666 0.0068261602188 0.0068120578091 
0.0067913565195 0.0067639471158 0.0067297850713 0.0066888867323 0.006641464812 0.0065877802534 0.0068166876774 0.0068850930423 0.0069471160067 
0.0070027885223 0.0070521456724 0.0070950296791 0.0071311774883 0.0071602243963 0.0071818554083 0.0071959047585 0.0072023336863 0.0072012656294 
0.0071928304342 0.0071770857428 0.00715397972 0.0071234502786 0.0070854160539 0.0070399466836 0.0069872716664 0.0069277696865 0.0071616454565 
0.0072371295859 0.0073057022465 0.0073673179476 0.0074218916242 0.007469258544 0.0075091642049 0.0075412541978 0.0075651466436 0.0075806304987 
0.007587678302 0.0075863526774 0.0075768091312 0.0075590924593 0.0075331966561 0.0074990601372 0.0074566386116 0.0074060789511 0.0073476250825 
0.0072817506841 0.0075302682307 0.0076138114618 0.0076898885888 0.0077582984005 0.007818893798 0.0078714311258 0.0079156379636 0.00795111312 
0.0079775230945 0.0079946258203 0.008002344292 0.0080007313808 0.0079898846037 0.0079698811143 0.0079407344793 0.007902439884 0.007855080742 
0.0077988067266 0.0077339527322 0.0076610062656 0.0079343604234 0.0080270991063 0.0081117230251 0.0081879224458 0.0082554032094 0.0083138930007 
0.0083630139389 0.0084023798809 0.008431657558 0.008450598233 0.0084591101556 0.0084571844179 0.0084448735958 0.0084222355843 0.0083893786386 
0.0083463775763 0.0082934100571 0.00823072041 0.0081586415524 0.008077716274 0.008384414598 0.0084876116197 0.0085819768598 0.0086670192893 
0.0087423564475 0.0088076333877 0.0088624640132 0.0089064004987 0.0089390801209 0.0089602077535 0.0089696567865 0.0089673625996 0.0089533877602 
0.0089278196103 0.008890774465 0.0088424593138 0.008783114378 0.0087130747249 0.008632793 0.0085427576721 0.0088891046378 0.0090042179282 
0.0091096377708 0.0092047954925 0.0092891610659 0.0093622920853 0.0094236970802 0.0094729155957 0.0095095502314 0.0095332764996 0.009543867638 
0.0095412576906 0.0095254689508 0.0094965897897 0.0094548238326 0.0094004865989 0.009333875822 0.009255417347 0.0091656494391 0.0090651085092 
0.0094558597761 0.0095846876023 0.0097028277267 0.0098095808867 0.0099043077551 0.0099864610267 0.010055490009 0.010110915589 0.010152173764 
0.010178944388 0.010190937293 0.01018804227 0.010170254723 0.010137681851 0.010090607514 0.010029365465 0.0099544125836 0.0098663000469 
0.0097655287099 0.0096528032366 0.010092248266 0.010236932045 0.010369767873 0.010489900047 0.010596538164 0.010689154908 0.010767033154 
0.010829558485 0.010876234834 0.010906603205 0.010920322785 0.010917255815 0.010897293624 0.010860567071 0.010807424386 0.010738328467 
0.010653743214 0.010554370003 0.010440900989 0.010314011752 0.010806511741 0.010969487774 0.011119299119 0.011254939335 0.011375562916 
0.011480313949 0.01156847725 0.011639323655 0.011692312929 0.01172689537 0.01174268977 0.011739450352 0.011717139002 0.011675829198 
0.011615851367 0.01153767659 0.01144195301 0.011329501802 0.011201151197 0.011057800733 0.011608161728 0.0117923594 0.011961842217 
0.012115473922 0.012252169434 0.0123710584 0.012471248119 0.012551895209 0.012612335071 0.012651857279 0.012670079363 0.01266681673 
0.012641905314 0.012595449029 0.012527650075 0.01243906482 0.012330451234 0.012202783687 0.012057059623 0.011894435582 0.012507359648 
0.012716122015 0.012908395021 0.013082851472 0.013238343721 0.013373760312 0.013488026612 0.0135801124 0.013649133337 0.013694456317 
0.013715664588 0.013712515389 0.013684743178 0.013632427197 0.013555735151 0.013455130768 0.013331532501 0.013186130753 0.013020162204 
0.012835016826 0.013513620871 0.01375076568 0.013969377541 0.014168058134 0.014345460859 0.014500217882 0.014630976685 0.014736455485 
0.014815575721 0.014867681672 0.014892328644 0.014889279468 0.014858328754 0.014799395732 0.014712466302 0.014598024475 0.014457035978 
0.014290854595 0.014101169775 0.013889760204 0.014633302224 0.014903331778 0.015152493326 0.015379313038 0.015582187613 0.015759514599 
0.015909575144 0.016030708505 0.01612165486 0.016181666965 0.016210314154 0.016207422343 0.016172723305 0.016105993152 0.016007195851 
0.015876626487 0.015715333358 0.015525004826 0.015307630984 0.015065563382 0.015867173622 0.016175312097 0.016459981962 0.016719503133 
0.016952007703 0.01715558077 0.017328054038 0.017467417651 0.017572191184 0.017641418063 0.017674731796 0.017671800909 0.017632422285 
0.017556314489 0.017443340854 0.017293846854 0.017108980764 0.016890575487 0.016641143675 0.016363535892 0.017210405926 0.017562698816 
0.017888566018 0.018186013629 0.018452917851 0.01868692041 0.018885317264 0.019045870337 0.019166692754 0.01924665988 0.019285153384 
0.019281820173 0.019236458012 0.019148800684 0.019018886044 0.01884704085 0.018634589715 0.018383771695 0.01809730899 0.017778900535 
0.018657528031 0.019061070811 0.019434802523 0.019776305321 0.0200829662 0.020351958961 0.02058039175 0.020765398256 0.020904782123 
0.020996993594 0.021041170772 0.021036870645 0.020983639728 0.020881755476 0.020731286509 0.020532965908 0.02028831054 0.01999993383 
0.019671162418 0.019305707971 0.020212282451 0.020675351197 0.021104810366 0.021497585379 0.021850488091 0.022160219347 0.022423256962 
0.022636454203 0.022797035128 0.022902943839 0.022953111131 0.02294701878 0.022884287353 0.022765166002 0.022590195215 0.022360595298 
0.022078464036 0.021746549247 0.021368682649 0.020949145923 0.0066842775316 0.0067438075063 0.0067978920073 0.0068464304367 0.0068893045727 
0.0069263669344 0.0069574039622 0.0069821951624 0.0070005980685 0.0070125347326 0.0070180130672 0.0070170693091 0.0070097408652 0.0069960482182 
0.0069759987236 0.0069496513218 0.0069170547854 0.0068782849185 0.0068334968488 0.0067828579695 0.0070428067515 0.0071080811949 0.0071674238757 
0.0072206877453 0.0072677629373 0.0073084590905 0.0073425700755 0.0073698582004 0.0073901245698 0.0074032791524 0.0074093073289 0.0074082454089 
0.0074001362464 0.0073850176223 0.0073628780225 0.0073337762484 0.0072977733976 0.0072549526919 0.007205497088 0.0071496318361 0.0074164497043 
0.0074881738045 0.0075533903533 0.0076119539379 0.007663702971 0.0077084856569 0.0077460381901 0.0077760890247 0.0077984306416 0.0078129385539 
0.0078195793789 0.0078183710615 0.007809350781 0.0077925557469 0.0077680369974 0.0077358146838 0.0076959505856 0.0076485594717 0.0075938688743 
0.0075321547749 0.0078073756328 0.0078863035315 0.007958150924 0.0080226787117 0.0080797397309 0.0081291175808 0.0081705238508 0.0082036769938 
0.0082283166856 0.0082443291941 0.0082516058903 0.0082501708238 0.0082400887633 0.0082213920581 0.0081941384801 0.0081583506749 0.0081141081625 
0.0080615891736 0.0080010401835 0.0079328207929 0.0082209115824 0.0083079640114 0.0083872818362 0.008458612964 0.0085216974089 0.0085762538533 
0.0086220206491 0.0086586695881 0.0086859094178 0.0087035649291 0.0087115418517 0.0087098490375 0.0086985308605 0.0086776324777 0.0086472319996 
0.0086073899037 0.0085582098471 0.0084999142015 0.0084328369368 0.0083573681304 0.0086649097824 0.008761154812 0.0088489709284 0.0089280213348 
0.0089979505039 0.0090584374492 0.0091091582149 0.0091497346707 0.0091799071766 0.0091994426219 0.0092082235669 0.0092062163926 0.0091934685205 
0.0091700572846 0.0091360626034 0.0090915965265 0.0090368396746 0.0089720645164 0.0088976265796 0.0088140087789 0.0091483852088 0.0092550589028 
0.0093525414353 0.0094403676517 0.0095181181277 0.0095853793293 0.0096417205321 0.0096868334342 0.0097203133611 0.0097419834374 0.0097516753599 
0.0097493292204 0.0097349857054 0.0097087000868 0.0096706193572 0.009620919163 0.0095598321924 0.0094877232233 0.0094049808787 0.0093121516608 
0.0096801938576 0.0097987622732 0.0099072654131 0.010005100395 0.010091739625 0.010166724848 0.010229587626 0.010279884085 0.010317254851 
0.01034139619 0.01035213013 0.010349426594 0.010333255453 0.010303749534 0.010261040501 0.010205391466 0.010137122659 0.010056635381 
0.0099644530617 0.0098611445731 0.010268814232 0.010400939589 0.010521964449 0.010631245536 0.010728109787 0.010811965891 0.010882271868 
0.010938562325 0.010980396553 0.011007440339 0.011019478561 0.01101638965 0.010998207642 0.010965012758 0.010917072154 0.010854670009 
0.010778186103 0.010688139694 0.010585125287 0.010469794348 0.0109222252 0.011069870697 0.011205303495 0.011327645039 0.011436228561 
0.011530273889 0.011609188326 0.01167241136 0.01171940883 0.011749837629 0.011763388195 0.011759956134 0.011739511348 0.011702223447 
0.011648322733 0.011578167489 0.011492312853 0.011391295888 0.011275821887 0.01114665936 0.011648478255 0.011813991202 0.011965894568 
0.012103331864 0.012225359947 0.012331173282 0.012420023914 0.012491216579 0.012544233814 0.012578612992 0.012594042256 0.012590285523 
0.012567330992 0.012525360506 0.012464662968 0.012385694407 0.012289022256 0.01217535063 0.01204555037 0.01190042888 0.012456076431 
0.012642111126 0.012813144425 0.012967979852 0.013105539388 0.013224931179 0.013325250495 0.013405702398 0.013465694277 0.013504666132 
0.013522236652 0.013518180722 0.013492469072 0.013445242835 0.013376793585 0.013287635772 0.013178523582 0.013050248428 0.012903811202 
0.012740282459 0.013354140576 0.013563858383 0.01375680925 0.013931679318 0.014087221764 0.01422232722 0.014335980027 0.014427314747 
0.014495426888 0.014539723896 0.014559861479 0.01455552884 0.014526664556 0.014473436939 0.014396116023 0.014295321623 0.014171823401 
0.014026586437 0.013860906484 0.013676002676 0.014351941801 0.014588975817 0.014807282272 0.015005326301 0.015181692382 0.015335046 
0.01546417872 0.015567980372 0.015645550732 0.015696159841 0.015719362167 0.015714740102 0.015682321364 0.015622187717 0.015534666507 
0.015420373011 0.015280210441 0.015115435474 0.014927428963 0.014717746115 0.015458228364 0.015726811345 0.015974416917 0.016199315782 
0.016399812249 0.016574366081 0.016721510685 0.016839886026 0.016928414826 0.01698629831 0.01701296112 0.017008105555 0.016971632433 
0.016903514108 0.016804180618 0.016674274853 0.016514851001 0.016327299769 0.016113391132 0.015874988583 0.01668038023 0.01698540533 
0.017266895602 0.017522865906 0.017751365197 0.017950538016 0.018118596942 0.018253932606 0.018355223863 0.018421525285 0.018452227581 
0.018447005373 0.018405683926 0.018328301742 0.018215227531 0.018067156668 0.017885310712 0.017671364706 0.017427345157 0.017155660706 
0.018023632568 0.018370833428 0.018691639412 0.018983641577 0.019244602894 0.01947233814 0.019664674013 0.019819652862 0.019935766259 
0.020011841365 0.020047178523 0.020041376337 0.019994238307 0.019905830411 0.019776556028 0.01960727889 0.019399348998 0.019154750325 
0.018875898028 0.018565635913 0.019492359154 0.019888420639 0.020254737011 0.0205885995 0.02088734 0.021148191098 0.02136868489 
0.021546495207 0.021679755624 0.021767092466 0.021807652039 0.021800867921 0.021746645592 0.021645041039 0.021496666568 0.021302512664 
0.021064190364 0.020784030108 0.02046487674 0.020110020441 0.021093376543 0.021546179254 0.021965511177 0.02234805317 0.022690599028 
0.022989975084 0.023243227022 0.023447468161 0.02360057645 0.023700809404 0.023747126506 0.023738892798 0.023675991776 0.023558537604 
0.023387337791 0.023163849143 0.022889951196 0.022568364331 0.02220255484 0.021796076404 0.022841102163 0.023360109803 0.023841321126 
0.024280797688 0.024674577157 0.025018883861 0.025310206977 0.025545193747 0.025721215398 0.025836202782 0.025888857494 0.025878395181 
0.025804851247 0.025668547328 0.025470564997 0.025212580154 0.024896988183 0.02452703481 0.024106586404 0.023640129421 0.0075207485421 
0.0075878388218 0.0076488687325 0.0077036446595 0.0077519746664 0.0077936647129 0.0078285090755 0.0078563365258 0.0078769909482 0.0078904003486 
0.0078965016945 0.0078952924615 0.0078868020506 0.0078710630206 0.0078481280032 0.0078180489948 0.0077809491487 0.0077369658753 0.0076862420998 
0.0076290083395 0.0079181894829 0.007991711867 0.0080586466693 0.0081187500247 0.0081717981721 0.008217570147 0.0082558633364 0.0082864523039 
0.0083091588118 0.008323881877 0.0083305700509 0.0083292084622 0.008319816556 0.0083024429634 0.0082771249307 0.0082439654063 0.0082030575684 
0.0081545713912 0.0080987037018 0.0080357258415 0.0083379242581 0.0084186658776 0.0084922044316 0.0085582389807 0.0086165821888 0.0086669391597 
0.0087090785465 0.0087427504379 0.0087677534549 0.0087839582157 0.0087912962449 0.0087897521759 0.008779329954 0.0087600860178 0.0087320758783 
0.0086954115981 0.00865022409 0.0085966827777 0.0085350422363 0.0084656147237 0.0087827264309 0.0088715387362 0.0089524804185 0.0090252408374 
0.0090895241327 0.0091450410193 0.009191511317 0.0092286271766 0.0092561937558 0.0092740459187 0.0092821002681 0.0092803144637 0.0092686971134 
0.0092473192335 0.0092162641496 0.0091756364673 0.0091256002102 0.0090663922833 0.0089982965077 0.0089216796769 0.0092572996638 0.009355184272 
0.0094444935878 0.0095248370479 0.0095958549603 0.0096571844919 0.0097085280461 0.0097495489034 0.0097800227898 0.0097997118755 0.0098085387221 
0.0098064667622 0.0097935007861 0.009769705053 0.0097351780401 0.0096900697239 0.0096345845805 0.0095689657099 0.0094936026673 0.0094089149203 
0.009768081723 0.0098762160957 0.0099749814031 0.010063892068 0.01014252757 0.010210469829 0.010267331834 0.010312785769 0.010346517782 
0.010368324555 0.010378052322 0.010375647304 0.010361122161 0.010334569326 0.010296107953 0.010245920675 0.010184246446 0.010111431344 
0.010027892471 0.0099341172459 0.010322550535 0.010442282346 0.010551763623 0.010650416668 0.010737682531 0.010813162632 0.010876322621 
0.010926817813 0.010964270922 0.010988455868 0.010999183361 0.010996419857 0.01098015609 0.010950481512 0.010907541222 0.010851596158 
0.010782939238 0.010701957595 0.010609166656 0.010505113701 0.010928512167 0.011061432271 0.011183121883 0.011292849132 0.011390010594 
0.011474020726 0.011544377303 0.011600622967 0.011642360484 0.011669257162 0.011681199387 0.011678043106 0.01165981171 0.011626588655 
0.011578591426 0.011516105544 0.011439508076 0.011349273784 0.011245947998 0.011130211303 0.011594026603 0.01174196809 0.01187751565 
0.011999850957 0.012108288041 0.012202095312 0.012280693777 0.012343547753 0.012390202805 0.012420296596 0.01243362111 0.012430047725 
0.012409571393 0.012372343578 0.012318616592 0.012248689017 0.012163037843 0.012062218676 0.011946906455 0.011817830136 0.012327103825 
0.012492153266 0.012643558309 0.012780346469 0.012901655907 0.013006689052 0.013094731898 0.013165182131 0.013217491455 0.013251276503 
0.013266225833 0.013262228793 0.013239273141 0.013197536899 0.013137228243 0.013058815146 0.012962823476 0.012849910904 0.012720860587 
0.012576519693 0.013135861537 0.013320566417 0.013490134975 0.013643467785 0.013779571289 0.013897487902 0.013996410449 0.014075594296 
0.014134435057 0.014172508968 0.014189406346 0.014184968837 0.014159208435 0.014112288592 0.014044535354 0.01395640272 0.013848574639 
0.013721788494 0.013576970175 0.013415102113 0.014029108277 0.014236306149 0.014426731467 0.014599073646 0.014752158107 0.014884911076 
0.014996293476 0.015085564099 0.015151960891 0.015194938432 0.015214100619 0.015209256725 0.015180362406 0.01512757799 0.015051234384 
0.014951974133 0.014830507088 0.014687753347 0.014524780858 0.014342816321 0.015015637549 0.015248669232 0.015463042348 0.015657236352 
0.015829913504 0.015979743126 0.01610568885 0.016206619607 0.016281761187 0.016330418965 0.016352235861 0.016346889955 0.016314396047 
0.016254888879 0.016168785538 0.016056726794 0.015919556314 0.015758391712 0.01557450107 0.015369287371 0.016104785918 0.016367549166 
0.016609494292 0.0168289132 0.017024145979 0.017193742399 0.017336329035 0.017450747244 0.017536002767 0.017591391309 0.01761630145 
0.017610396643 0.017573751082 0.017506526567 0.01740914375 0.017282308206 0.017127039149 0.016944633758 0.016736571425 0.016504609216 
0.017305728442 0.017602730133 0.017876480911 0.018124971816 0.01834630286 0.01853872599 0.018700660484 0.018830693871 0.018927664132 
0.018990678513 0.01901913934 0.019012736209 0.018971275484 0.018895071844 0.018784604958 0.018640691651 0.018464509496 0.018257563494 
0.018021618785 0.017758732892 0.018627467682 0.018963934155 0.019274371609 0.019556460368 0.019807988813 0.020026869738 0.020211190521 
0.020359306427 0.020469829203 0.020541717986 0.020574228357 0.020567034117 0.02052003016 0.020433427197 0.020307761223 0.020144020506 
0.019943571394 0.019708155406 0.019439943275 0.019141344613 0.02007891295 0.020460975764 0.020813888675 0.021134860191 0.021421341272 
0.021670857587 0.021881137239 0.022050199401 0.022176403588 0.022258518315 0.022295702349 0.022287543543 0.022233875381 0.022134991851 
0.021991576291 0.021804752018 0.021576117476 0.021307752691 0.021002160255 0.020662222754 0.021670151079 0.022104982842 0.022507137721 
0.022873260886 0.023200317875 0.023485347861 0.023725744789 0.02391908985 0.024063459978 0.024157366615 0.024199855595 0.0241903304 
0.024128716909 0.024015402625 0.023851147158 0.023637301144 0.023375862855 0.023069298507 0.022720397345 0.022332634362 0.023414674608 
0.023910822317 0.024370164659 0.024788796459 0.025163069086 0.025489552097 0.025764924714 0.025986491918 0.026151924443 0.026259435553 
0.026307833167 0.02629650993 0.026225394856 0.026094961821 0.025906208395 0.025660684823 0.025360839265 0.025009635187 0.024610401612 
0.024167107747 0.025332280546 0.025899929566 0.026426139791 0.02690619251 0.027335661214 0.027710425706 0.028026699579 0.028281182248 
0.028471023429 0.028594262486 0.028649366253 0.02863560295 0.028552955118 0.028402167438 0.028184438112 0.027901827089 0.027557007143 
0.027153568245 0.02669557451 0.026187579836 0.0083419369504 0.0084161497187 0.0084837131586 0.0085443570853 0.008597841445 0.0086439464726 
0.0086824519981 0.0087131711741 0.0087359610524 0.0087507197718 0.0087573878036 0.0087559357238 0.0087463659976 0.008728731711 0.0087030958464 
0.0086695683005 0.0086282561936 0.0085793488816 0.0085230519942 0.008459601568 0.0087779319411 0.008859224545 0.0089332749863 0.0089997748315 
0.0090584578738 0.0091090576009 0.0091513277437 0.0091850568166 0.0092100858169 0.0092262781651 0.0092335666339 0.0092319194007 0.0092213508431 
0.009201894101 0.0091736371984 0.0091366980619 0.0090912252641 0.0090374153561 0.0089755025536 0.0089057916645 0.0092415873035 0.0093307689262 
0.0094120850732 0.0094851463084 0.0095496406425 0.0096052655089 0.0096517567509 0.009688871557 0.0097163965878 0.009734199575 0.0097421807259 
0.0097403051222 0.0097285971564 0.0097070951955 0.009675873299 0.0096351026765 0.0095849478736 0.0095256252537 0.0094574197709 0.0093806996202 
0.0097360562439 0.0098341025837 0.0099235347422 0.010003956819 0.01007498421 0.010136267897 0.01018748805 0.010228397448 0.010258730146 
0.010278315894 0.010287080226 0.010284947392 0.010271929382 0.010248088609 0.010213545578 0.010168450161 0.010113024485 0.010047515254 
0.0099722738107 0.0098876988433 0.010265781255 0.010373784854 0.010472382205 0.010561088418 0.010639469743 0.01070712641 0.010763704508 
0.010808867297 0.010842370191 0.010863979785 0.010873592868 0.010871151911 0.010856661901 0.010830199165 0.010791882207 0.010741900943 
0.010680527647 0.010608058459 0.010524892267 0.010431506276 0.010836486065 0.010955690046 0.011064597631 0.011162669204 0.011249378513 
0.011324250068 0.011386861365 0.011436856308 0.011473927369 0.01149783711 0.011508431348 0.011505634611 0.011489476962 0.01146001844 
0.011417446387 0.011361959157 0.011293861904 0.011213538839 0.011121457792 0.011018136918 0.011454760486 0.011586610499 0.011707209024 
0.01181587665 0.011912019673 0.011995068622 0.0120645574 0.012120037431 0.012161168197 0.012187672514 0.01219938215 0.012196206488 
0.01217815309 0.012145329909 0.012097906889 0.012036177955 0.011960492466 0.011871287336 0.011769113444 0.01165458203 0.012127809014 
0.012274026894 0.012407864075 0.012528566745 0.012635409134 0.012727781912 0.012805069217 0.012866783178 0.012912520907 0.012942006159 
0.01295500026 0.012951403281 0.012931232986 0.012894579157 0.012841688243 0.012772887769 0.012688585727 0.012589324535 0.012475690465 
0.012348435982 0.012863212783 0.013025723534 0.013174614859 0.013308982805 0.013428019351 0.013530969843 0.013617173805 0.013686056833 
0.013737129711 0.01377001611 0.013784503736 0.013780440558 0.013757849824 0.013716880969 0.013657778045 0.01358092449 0.013486833917 
0.013376101087 0.013249468405 0.013107733345 0.013668867256 0.013849927264 0.014015928112 0.014165906033 0.014298866119 0.014413928858 
0.014510307313 0.014587373391 0.014644537212 0.014681351126 0.014697560748 0.014693012141 0.014667729878 0.014621841326 0.014555660123 
0.01446965373 0.01436438731 0.014240581103 0.014099084689 0.013940852388 0.014552946325 0.014755144306 0.014940755914 0.015108553088 
0.015257426398 0.015386345701 0.015494405344 0.015580843415 0.015645002723 0.01568637043 0.015704593691 0.015699527436 0.015671150906 
0.015619682117 0.015545438311 0.015448952709 0.015330916372 0.015192182982 0.015033691275 0.014856593952 0.01552417765 0.015750587343 
0.015958596829 0.016146800349 0.016313859691 0.016458675694 0.016580154315 0.016677340505 0.016749530605 0.016796109637 0.016816683865 
0.016811108121 0.016779256994 0.016721370312 0.016637891836 0.016529427102 0.016396746819 0.016240880322 0.016062952433 0.015864220048 
0.016591580157 0.016845651576 0.017079321017 0.017290939507 0.017479007108 0.017642106129 0.017778981262 0.017888586032 0.017969981937 
0.018022583261 0.018045888877 0.01803962387 0.018003808107 0.017938639668 0.017844599794 0.017722364378 0.017572868464 0.017397299041 
0.017197014335 0.016973522878 0.017764720139 0.018050557091 0.018313690131 0.018552201722 0.01876430476 0.018948395731 0.019103011076 
0.019226903067 0.019319087835 0.019378632903 0.019405041057 0.019398057624 0.019357646237 0.019284073464 0.01917784353 0.019039783981 
0.01887093735 0.018672724133 0.018446697155 0.018194710356 0.019053519675 0.019375831881 0.019672843698 0.019942301765 0.020182143525 
0.020390466386 0.02056555027 0.020705928321 0.020810383421 0.020877951232 0.02090801195 0.02090021963 0.020854471027 0.020771152329 
0.020650860062 0.020494492791 0.020303350998 0.02007906674 0.019823443116 0.019538620748 0.020468500017 0.020832774846 0.021168791328 
0.021473933594 0.021745774412 0.021982082605 0.022180818728 0.022340243723 0.02245890076 0.022535696119 0.022569855764 0.022561023816 
0.022509130254 0.022414528992 0.022277919298 0.022100410776 0.021883476688 0.021628994733 0.021339223565 0.021016640569 0.022021163306 
0.022433846757 0.022814859491 0.023161231031 0.023470079269 0.023738721264 0.023964809889 0.024146261728 0.024281330879 0.024368747465 
0.024407637204 0.024397543147 0.02433839615 0.024230595103 0.024075029567 0.023872926504 0.023626100672 0.023336723769 0.023007447571 
0.022641222254 0.023725039255 0.02419360906 0.024626775986 0.025020914782 0.025372603325 0.025678758165 0.025936516817 0.026143456423 
0.026297539866 0.026397246553 0.026441507427 0.026429800058 0.026362069591 0.026238834958 0.026061059351 0.025830358547 0.025548794096 
0.025218963649 0.024843934304 0.02442723477 0.025597123482 0.02613053898 0.026624199499 0.027073795185 0.027475377949 0.027825129289 
0.028119725124 0.028356283379 0.028532411369 0.028646278873 0.028696635986 0.028682881653 0.028605007683 0.028463598429 0.028259909969 
0.027995812117 0.027673732758 0.027296860868 0.026868707087 0.026393456783 0.027659832293 0.028268713118 0.028832923647 0.029347252477 
0.029806947482 0.030207567017 0.030545189236 0.030816262348 0.031018036939 0.031148295983 0.031205634031 0.031189331252 0.0310994137 
0.030936450821 0.030702287261 0.030398974138 0.030029518965 0.029597556194 0.029107489722 0.028564127072 0.0091438836379 0.0092248009605 
0.0092984903708 0.0093646376247 0.0094229730186 0.0094732254516 0.0095151839929 0.0095486441916 0.0095734439419 0.0095894656729 0.0095966503671 
0.0095949596294 0.0095843934813 0.0095650008371 0.0095368679561 0.0095001118471 0.0094548833256 0.0094013904873 0.0093398627453 0.009270578517 
0.0096171241309 0.0097056989632 0.009786403235 0.0098588942587 0.0099228431535 0.0099779657967 0.010023990864 0.010060687172 0.010087891213 
0.010105457697 0.010113302834 0.010111392713 0.010099725679 0.010078354565 0.010047378926 0.010006938808 0.0099572198736 0.0098984329637 
0.0098308669731 0.0097548383888 0.010122179738 0.010219282858 0.010307837877 0.010387413955 0.010457646513 0.010518198451 0.010568770188 
0.01060911398 0.010639011494 0.010658301227 0.010666890976 0.0106647208 0.010651820913 0.010628237366 0.010594069754 0.010549492731 
0.010494724025 0.010430006501 0.010355672961 0.010272095505 0.0106624558 0.010769127114 0.010866446502 0.010953957403 0.011031242926 
0.011097879542 0.011153570692 0.011197993076 0.011230905345 0.011252134298 0.011261545734 0.011259103349 0.011244795104 0.011218696896 
0.011180947049 0.011131728069 0.01107129263 0.010999931558 0.010918017271 0.010825964544 0.011242306158 0.011359690873 0.011466894944 
0.011563319471 0.011648509179 0.011722040227 0.011783476269 0.011832493443 0.011868784243 0.011892183143 0.011902528166 0.011899745925 
0.011883858157 0.011854938497 0.011813141048 0.01175869278 0.011691864556 0.011613034377 0.011522613141 0.011421097696 0.01186704789 
0.011996487707 0.012114773 0.012221268606 0.01231540782 0.01239666897 0.012464614164 0.012518799503 0.012558957696 0.01258479802 
0.012596181288 0.01259303406 0.01257535824 0.012543245215 0.012496889225 0.012436539971 0.012362520947 0.012275256573 0.012175253282 
0.012063072604 0.012542798023 0.012685835163 0.012816630509 0.012934490625 0.013038741642 0.013128766432 0.01320405692 0.01326412274 
0.013308622597 0.013337249346 0.01334983934 0.013346274971 0.013326579908 0.013290865382 0.013239351844 0.013172319346 0.013090171615 
0.012993401227 0.012882582598 0.012758360518 0.013276333436 0.01343472369 0.013579693888 0.013710410675 0.013826112648 0.013926087168 
0.014009707559 0.014076431263 0.014125850081 0.014157662087 0.014171617149 0.014167592376 0.014145635317 0.014105854528 0.014048482424 
0.013973896044 0.013882550681 0.013775019157 0.013651949748 0.013514114686 0.0140748547 0.014250640931 0.014411685775 0.014556995646 
0.014685696508 0.014796932514 0.014890052259 0.014964397976 0.015019476034 0.015054893694 0.015070399256 0.015065891913 0.015041362363 
0.014996959609 0.014932963407 0.014849806909 0.014748026015 0.014628273353 0.014491317774 0.014338044737 0.014946120451 0.015141663328 
0.015320925552 0.015482834944 0.015626312935 0.015750425925 0.015854364711 0.01593738422 0.015998899285 0.016038467489 0.016055808096 
0.016050733644 0.016023293334 0.015973642294 0.015902140328 0.015809231483 0.015695557989 0.015561905558 0.015409143712 0.015238306488 
0.015898283153 0.016116278424 0.016316329397 0.016497129732 0.016657482313 0.016796282515 0.016912550058 0.017005470356 0.017074354848 
0.017118692574 0.017138108652 0.017132437625 0.017101704997 0.017046106716 0.01696601493 0.01686199662 0.01673477539 0.016585258237 
0.016414497623 0.016223658037 0.016940001814 0.017183607346 0.017407316964 0.017609697123 0.017789318554 0.017944906969 0.018075319887 
0.01817958837 0.018256908718 0.018306695056 0.01832856138 0.018322237909 0.018287736778 0.018225319654 0.018135432617 0.01801869383 
0.017876011353 0.017708392056 0.017517061971 0.017303368501 0.018080497874 0.018353340333 0.018604200774 0.018831266963 0.019032937926 
0.019207748788 0.019354295 0.019471570206 0.019558589766 0.019614650853 0.019639250922 0.019632172101 0.019593407434 0.019523240736 
0.019422117001 0.019290818512 0.019130377942 0.018942015084 0.018727143373 0.018487381615 0.019329731529 0.01963597024 0.019917785199 
0.020173114083 0.020400080091 0.020596921928 0.020762132226 0.020894389068 0.020992538572 0.021055753933 0.021083545463 0.021075599464 
0.021031898079 0.020952757365 0.02083875918 0.020690805938 0.020510007387 0.020297792396 0.020055901321 0.019786215918 0.020698237409 
0.021042763488 0.021360107306 0.021647898349 0.021903890335 0.022126091596 0.022312659955 0.022462069903 0.022573028423 0.022644577727 
0.022676062521 0.022667043819 0.022617651839 0.02252818025 0.022399344748 0.022232119295 0.022027908137 0.021788386444 0.021515493151 
0.021211458341 0.022197667057 0.022586114386 0.022944290656 0.023269390939 0.023558827009 0.023810206308 0.024021416133 0.024190632249 
0.024316335676 0.024397389629 0.024433015452 0.024422801436 0.024366822364 0.024265403114 0.024119391355 0.02392998419 0.023698768603 
0.023427731573 0.023119187281 0.02277570442 0.02384115869 0.024280129065 0.024685309197 0.025053422566 0.025381412531 0.025666467588 
0.025906123223 0.026098176127 0.026240859143 0.0263328592 0.026373257155 0.02636159521 0.026297885354 0.026182614379 0.026016695086 
0.02580161073 0.025539198686 0.025231769623 0.024882069691 0.024493147198 0.025644139655 0.026141373033 0.026600831448 0.027018628146 