# vtk DataFile Version 5.1
vtk output
ASCII
DATASET STRUCTURED_POINTS
DIMENSIONS 50 50 50
SPACING 0.002 0.002 0.002
ORIGIN 0.2174 -0.052672 0.02732
POINT_DATA 125000
FIELD FieldData 1
potential 1 125000 double
0.002321927421 0.0023461593729 0.0023707369707 0.0023956642767 0.0024209531869 0.0024466176454 0.0024727520784 0.0024992168765 0.002526106473 
0.0025534367693 0.0025812219538 0.0026094765361 0.0026382102311 0.0026674293431 0.0026971360705 0.0027273344521 0.0027580249501 0.0027892185737 
0.0028209061275 0.002853109511 0.0028858224383 0.0029191009611 0.002952897879 0.0029872578619 0.0030222054618 0.0030577632858 0.0030939551682 
0.0031308030506 0.0031683349693 0.0032065684782 0.0032455275069 0.0032852295441 0.0033256949949 0.0033670585517 0.0034091139241 0.0034519871922 
0.0034957093257 0.00354029223 0.0035857697093 0.0036321696211 0.0036795085886 0.0037278174131 0.0037771260277 0.0038274072012 0.0038787764961 
0.003930635471 0.0039840690361 0.0040385490684 0.0040940960292 0.0041508559066 0.0023170390322 0.0023411295526 0.0023655650668 0.0023903516331 
0.0024154976297 0.0024410195426 0.0024670120389 0.002493334666 0.0025200793923 0.0025472642346 0.0025749002188 0.0026030026137 0.0026315789876 
0.0026606350654 0.0026901710779 0.0027201925193 0.0027506990832 0.0027816987304 0.0028131869747 0.0028451831074 0.0028776812093 0.0029107384528 
0.0029443064626 0.0029784314982 0.0030131390816 0.0030484510715 0.0030843904352 0.0031209822915 0.0031582516254 0.0031962160955 0.0032348984463 
0.0032743196318 0.0033144930023 0.0033555581128 0.0033973048671 0.0034398637193 0.0034832493242 0.0035274966088 0.0035726198625 0.0036186532725 
0.0036656218556 0.0037135506921 0.0037624579243 0.0038123398144 0.0038632899271 0.0039147214252 0.0039677153366 0.0040217408692 0.0040768299871 
0.0041331083316 0.0023111961613 0.0023351272707 0.0023594139034 0.0023840437498 0.0024090375022 0.0024344057704 0.0024601641265 0.0024864221747 
0.0025130121941 0.0025400409462 0.0025675186245 0.0025954549772 0.0026238628554 0.0026527415453 0.0026820963535 0.00271192591 0.0027422349983 
0.0027730248771 0.0028043037665 0.0028360724201 0.0028683504018 0.0029011799909 0.0029345033328 0.0029683834653 0.0030028383225 0.0030378949318 
0.0030735733872 0.0031098967177 0.0031468949136 0.0031845820218 0.0032229796979 0.0032621076725 0.0033019768875 0.0033427307974 0.0033841547477 
0.0034263791199 0.0034694197785 0.0035133078944 0.0035580596984 0.003603711211 0.0036502809095 0.0036978031532 0.0037462906412 0.0037957369714 
0.0038462267682 0.0038977461279 0.0039497403477 0.0040032795035 0.0040578686334 0.0041136325016 0.0023041850664 0.0023279502681 0.0023520675983 
0.0023765332552 0.0024013621861 0.0024265628433 0.0024521579538 0.0024782504464 0.0025046751172 0.0025315341931 0.0025588411452 0.0025865999314 
0.0026148242876 0.0026435109601 0.002672666891 0.0027022933003 0.0027323879798 0.00276295778 0.0027940087859 0.002825541429 0.0028575762336 
0.002890155824 0.0029232253225 0.0029568456453 0.0029910365622 0.00302582329 0.0030612265288 0.0030972721326 0.0031339848201 0.0031713787421 
0.003209476533 0.0032482963518 0.0032878476352 0.0033281547925 0.0033693555908 0.0034112232592 0.0034539012567 0.0034974062024 0.0035417661189 
0.0035870020122 0.0036331535312 0.0036802391202 0.0037282802336 0.0037772515642 0.003827256613 0.0038782820308 0.0039297655148 0.0039827894864 
0.004036839026 0.0040920572342 0.0022958288055 0.0023194200133 0.0023433607243 0.002367646238 0.0023922941623 0.0024173188578 0.0024427351693 
0.0024685564962 0.0024948945075 0.0025215684889 0.0025486856689 0.0025762514679 0.0026042752495 0.0026327553884 0.0026616983372 0.0026911012676 
0.0027209663387 0.002751297501 0.0027820994491 0.0028133828227 0.0028451520236 0.0028774722158 0.0029102693813 0.0029436117605 0.0029775196775 
0.0030120221856 0.003047135101 0.0030828825644 0.0031192927946 0.0031563784939 0.0031941589261 0.0032326493467 0.0032718616655 0.0033118212695 
0.00335266006 0.0033941467226 0.003436434575 0.0034795342056 0.0035234731514 0.0035682695998 0.0036139705572 0.0036605848114 0.003708139232 
0.0037566202778 0.0038061016613 0.0038565944567 0.0039075241712 0.0039599992172 0.0040134640777 0.0040679388448 0.0022860253123 0.0023094264336 
0.0023331721148 0.0023572701003 0.0023817246624 0.002406558099 0.0024317789416 0.0024574051137 0.0024835472802 0.0025100215863 0.0025369329447 
0.0025642884177 0.0025920948574 0.0026203507479 0.0026490587761 0.0026782215136 0.0027078389907 0.0027379132334 0.0027684526458 0.0027994647381 
0.0028309560481 0.0028629916696 0.0028954977232 0.0029285446106 0.0029621522585 0.0029963425159 0.0030311465553 0.0030665826351 0.0031026697385 
0.0031394271162 0.003176868356 0.003215011645 0.0032538648332 0.0032934508826 0.0033339041174 0.0033749914584 0.0034168588017 0.0034595237457 
0.0035030083678 0.0035473364063 0.003592548624 0.0036386610691 0.0036856953537 0.0037336393264 0.0037825670585 0.0038324919348 0.0038833713712 
0.0039347060156 0.0039875581475 0.004041394885 0.0022747289897 0.0022979317562 0.0023214700683 0.002345361615 0.0023696090578 0.0023942339903 
0.0024192479852 0.0024446632668 0.0024704901577 0.0024968502326 0.0025235392859 0.0025506670426 0.0025782375389 0.002606250291 0.0026347088772 
0.0026636120304 0.0026929627228 0.0027227622159 0.0027530170232 0.0027837377047 0.0028149322569 0.0028466554639 0.0028788586126 0.0029115908885 
0.0029448788659 0.0029787443515 0.0030132168316 0.0030483126161 0.0030840558634 0.0031204646806 0.0031575460576 0.0031953198748 0.0032337881767 
0.0032729756662 0.0033130228785 0.0033536811447 0.0033951005194 0.0034373033935 0.0034803007535 0.0035241315335 0.0035688246925 0.003614396455 
0.0036608764264 0.0037082485023 0.0037565942589 0.0038059059681 0.0038561601542 0.0039068576438 0.0039590509499 0.0040122202643 0.002261971249 
0.0022849560448 0.0023082773609 0.0023319455724 0.0023559798765 0.0023803825451 0.0024051685542 0.0024303594117 0.0024559599027 0.0024820879401 
0.0025085365549 0.0025354173845 0.0025627368598 0.0025904895563 0.0026186801616 0.0026473057947 0.0026763710503 0.0027058774534 0.0027358304313 
0.0027662384705 0.0027971187369 0.002828517969 0.0028603856458 0.0028927877306 0.0029257360058 0.0029592559752 0.0029933769932 0.0030281144477 
0.0030634958587 0.0030995270206 0.0031362274006 0.0031736043557 0.0032116693645 0.0032504372796 0.0032900507236 0.0033302529322 0.003371200783 
0.0034129100917 0.0034553961103 0.0034986985871 0.0035428379599 0.0035878432428 0.0036337353178 0.0036804973773 0.0037282197908 0.0037768953287 
0.003826485633 0.0038770471319 0.0039280080364 0.0039804662552 0.0022478390505 0.0022705981896 0.0022936927202 0.0023171318582 0.0023409329373 
0.0023651010449 0.0023896530005 0.0024146009823 0.0024399567512 0.002465727367 0.0024920331185 0.0025186515384 0.0025457017545 0.0025731761005 
0.0026010803662 0.0026294124789 0.0026581769711 0.0026873710457 0.0027170035463 0.0027470867255 0.0027776332715 0.0028086946577 0.0028402152515 
0.0028722642547 0.002904853639 0.0029380100294 0.0029717557285 0.0030061173535 0.0030411079626 0.0030767491387 0.0031130441211 0.0031500031991 
0.0031876407341 0.0032259586936 0.0032651174796 0.0033048455542 0.003345290818 0.0033864802911 0.0034284314359 0.0034711772434 0.0035147362762 
0.0035591430769 0.0036044139061 0.0036505424513 0.0036976092124 0.0037456093651 0.0037945052306 0.0038443586774 0.003894591899 0.0039463077181 
0.0022324825482 0.0022550183789 0.0022778742779 0.0023010759817 0.0023246314214 0.002348557974 0.0023728624377 0.0023975584406 0.0024226554372 
0.0024481602376 0.0024740802598 0.002500539046 0.0025273043656 0.0025544883822 0.0025820905663 0.002610113075 0.0026385577031 0.0026674257803 
0.0026967272605 0.0027264692157 0.0027566653824 0.0027873414016 0.0028185344075 0.0028502071099 0.0028824271467 0.0029152013448 0.0029485593564 
0.0029825262525 0.0030171131337 0.0030523390834 0.0030882090321 0.0031247329623 0.0031619185423 0.00319977075 0.0032383023367 0.0032776670565 
0.0033175992857 0.0033582483147 0.0033996354031 0.0034417995032 0.0034847569159 0.0035285405173 0.0035731683016 0.0036186358291 0.003665021322 
0.0037123153496 0.003760504228 0.0038096097904 0.0038596416987 0.0039100346308 0.0022161083948 0.0022384058142 0.0022610254198 0.0022839831848 
0.0023072889224 0.0023309662191 0.0023550099768 0.0023794428903 0.0024042711028 0.00242950251 0.0024551390244 0.0024813080107 0.0025077740524 
0.002534650275 0.0025619400447 0.0025896406219 0.0026177544208 0.0026462837828 0.0026752384137 0.0027046269927 0.002734466152 0.0027647755807 
0.0027955938064 0.0028268864157 0.0028587182336 0.0028910987664 0.0029240540644 0.0029576083913 0.002991776802 0.0030265715649 0.0030619987837 
0.0030980678311 0.0031347861345 0.0031721519694 0.0032101822585 0.0032490261768 0.0032884185783 0.0033285006955 0.0033693119237 0.0034108836255 
0.003453220319 0.003496361165 0.0035403289066 0.0035851122195 0.0036307949384 0.0036773660465 0.0037248140969 0.0037731645764 0.0038224103519 
0.0038720083977 0.0021989492184 0.0022210086031 0.002243378556 0.0022660873579 0.0022891456497 0.0023125574286 0.0023363428102 0.0023605044876 
0.0023850552563 0.0024100012378 0.0024353469915 0.0024610915953 0.0024873732565 0.0025139323946 0.0025408953602 0.0025682628737 0.0025960352205 
0.0026242203099 0.0026528173738 0.0026818441968 0.0027113136053 0.0027412468377 0.0027716870514 0.0028025899417 0.0028340189 0.0028660013206 
0.0028985439799 0.002931675527 0.002965408659 0.0029997592914 0.0030347310004 0.0030703318991 0.0031065658722 0.0031434324476 0.0031809457316 
0.0032192579815 0.0032580968238 0.0032976083361 0.0033378292721 0.003378780643 0.0034204849007 0.0034629777735 0.0035062692425 0.00355035864 
0.003595323706 0.0036411588449 0.0036878538766 0.0037354249128 0.0037838730704 0.0038332087382 0.0021812517577 0.0022030675116 0.0022251929241 
0.0022476511196 0.0022704487763 0.0022935999115 0.0023171213258 0.0023410092773 0.0023652736141 0.0023899276179 0.0024149732991 0.0024404113018 
0.0024663778354 0.0024926111113 0.0025192395978 0.0025462639793 0.0025736872287 0.0026015181845 0.0026297558551 0.0026584165465 0.0026875189648 
0.002717068073 0.0027471224241 0.0027776329075 0.0028086592574 0.0028402319126 0.0028723538467 0.0029050554948 0.0029383462217 0.002972239032 
0.003006745629 0.0030418677969 0.0030776064677 0.00311396117 0.0031509490172 0.0031887216936 0.0032269948121 0.0032659293739 0.0033055513325 
0.0033458821386 0.0033869460743 0.003428770864 0.0034713827823 0.0035147994787 0.0035590134955 0.0036041038755 0.0036500351049 0.0036968186701 
0.0037444625668 0.0037929713274 0.0021632529661 0.0021848283928 0.0022067110615 0.0022289186663 0.0022514610838 0.0022743481627 0.0022975969918 
0.0023212063721 0.0023451842476 0.0023695428482 0.0023942865319 0.0024194110436 0.0024449265507 0.0024709590501 0.0024972486394 0.0025239271584 
0.0025510000585 0.0025784709251 0.0026063443663 0.0026346376733 0.0026633653576 0.0026925338645 0.0027221982686 0.0027523182855 0.0027829437424 
0.0028140946092 0.0028457999194 0.0028780670777 0.0029109114981 0.0029443451005 0.0029783762099 0.0030130097879 0.0030482474961 0.0030840846149 
0.0031205419595 0.0031577671326 0.0031954725267 0.0032338255265 0.0032728443455 0.0033125530283 0.0033529785592 0.0033941399741 0.003436069067 
0.0034787843363 0.0035222651917 0.003566610783 0.0036117718374 0.0036577716265 0.0037046056758 0.0037522851784 0.0021451787104 0.0021665197092 
0.0021881596816 0.0022101198566 0.0022324075614 0.0022550351257 0.0022780093668 0.002301344003 0.002325033928 0.0023490951703 0.002373529412 
0.0023983396836 0.0024235315028 0.0024490946755 0.0024751814816 0.0025015141504 0.0025282329008 0.0025553451179 0.0025828587629 0.0026107800544 
0.0026391337817 0.0026679244999 0.0026972037061 0.0027269309996 0.002757154867 0.002787894979 0.0028191728333 0.0028510093382 0.0028834049827 
0.0029163730771 0.0029499299027 0.0029840728936 0.0030188044557 0.0030541216842 0.0030900450933 0.0031265685185 0.0031638588181 0.0032016305749 
0.0032400550531 0.0032791471506 0.0033189337065 0.0033594429362 0.0034006923396 0.0034427095588 0.0034854666241 0.0035290690126 0.003573467133 
0.0036186709923 0.0036646968054 0.003711551077 0.0021272327526 0.0021483410663 0.0021697457727 0.0021914612064 0.0022134980639 0.0022358657984 
0.0022585718132 0.0022816272518 0.0023050334911 0.0023287950943 0.00235292384 0.0023774194056 0.0024022834227 0.0024275151573 0.0024532651678 
0.0024792546492 0.0025056224863 0.0025323789112 0.0025595304792 0.0025870871202 0.0026150720276 0.0026434850361 0.0026723820776 0.0027017211207 
0.0027315492808 0.0027618812287 0.0027927385192 0.002824143399 0.0028560906696 0.0028886002774 0.0029216774876 0.0029553311949 0.0029895576753 
0.0030243624542 0.0030597453946 0.0030957236636 0.0031324556066 0.0031696528215 0.0032074843359 0.0032459665608 0.0032851255372 0.0033249850406 
0.0033655715058 0.0034068952574 0.0034489345244 0.0034918067434 0.0035354507341 0.0035798772868 0.0036251050591 0.003671134889 0.0021095860077 
0.0021304642285 0.0021516352169 0.00217311104 0.0021948978935 0.0022170099579 0.0022394510007 0.0022622278244 0.0022853544045 0.0023088261991 
0.0023326475787 0.002356830393 0.0023813709985 0.0024062756485 0.0024315480624 0.002457338213 0.0024833607215 0.0025097650048 0.0025365617883 
0.0025637644259 0.0025913797767 0.0026194242532 0.002647913401 0.0026769001919 0.0027063349529 0.0027362645119 0.0027667051251 0.0027976754269 
0.0028291878346 0.0028612406495 0.0028938440685 0.0029270114407 0.0029607391952 0.0029950304777 0.0030298840536 0.0030653211449 0.0031015025349 
0.0031381315364 0.0031753783795 0.0032132672159 0.0032518102898 0.0032910377007 0.0033309676516 0.003371612803 0.0034129596207 0.0034551056802 
0.0034980045352 0.0035416697025 0.0035861111352 0.003631334453 0.0020923655203 0.002113018816 0.0021339592936 0.0021552002934 0.0021767455908 
0.0021986039876 0.0022207837816 0.0022432908922 0.0022661382645 0.002289320475 0.0023128428406 0.0023367167039 0.0023609433379 0.0023855252152 
0.002410465189 0.0024359220565 0.0024616032088 0.002487662473 0.0025141105426 0.0025409576885 0.0025682175209 0.0025959001583 0.002624024105 
0.0026526291054 0.0026816760173 0.0027112103205 0.0027412392246 0.0027717893592 0.0028028665157 0.0028344686028 0.0028666068032 0.002899294662 
0.002932526938 0.0029663137978 0.0030006490551 0.003035555837 0.0030711962914 0.0031072682176 0.0031439465369 0.0031812491346 0.0032191905003 
0.0032577965976 0.0032970861358 0.0033370724868 0.0033777400586 0.0034191815556 0.0034613571755 0.0035042705928 0.0035479470935 0.0035923795077 
0.0020756745073 0.0020961088237 0.0021168241353 0.0021378316419 0.0021591355172 0.0021807479101 0.0022026707073 0.0022249130677 0.0022474806116 
0.0022703816145 0.002293616126 0.0023171870846 0.002341103739 0.0023653688729 0.0023899886236 0.0024149655913 0.0024404654832 0.0024661876755 
0.0024922955713 0.0025187968147 0.0025457083154 0.002573036008 0.0026007957048 0.0026290321324 0.0026576969343 0.0026868402234 0.0027164725196 
0.0027466063008 0.0027772479443 0.0028084111753 0.0028400949632 0.0028723068969 0.0029050634775 0.0029383530999 0.002972181282 0.0030065633513 
0.0030415143237 0.0030772087764 0.003113331203 0.0031500591017 0.0031874159846 0.003225418738 0.003264083212 0.0033034271088 0.0033434328347 
0.0033841784627 0.0034256603161 0.0034678481016 0.0035107753719 0.0035544389176 0.0020595826214 0.002079796852 0.0021002940555 0.0021210741294 
0.0021421416126 0.0021635092585 0.0021851846241 0.0022071653609 0.0022294638985 0.0022520892704 0.0022750362097 0.0022983165091 0.0023219300529 
0.0023458872555 0.0023701917931 0.002394850305 0.0024198700498 0.0024454228107 0.0024711971092 0.0024973610397 0.0025239330651 0.0025509114595 
0.0025783159849 0.0026061902573 0.0026344846758 0.0026632437179 0.0026924843098 0.0027222097698 0.002752429875 0.0027831596199 0.002814400284 
0.0028461546421 0.002878434324 0.002911238461 0.0029445737217 0.0029784497336 0.0030128843254 0.0030480490597 0.0030836311763 0.0031198042216 
0.0031565932908 0.0031940076455 0.0032320679962 0.0032707889265 0.0033101480025 0.0033502367017 0.0033910313839 0.0034325176853 0.0034747211846 
0.0035176374835 0.002044131681 0.0020641329729 0.0020844152551 0.0021049698274 0.0021258065097 0.0021469367069 0.0021683623914 0.0021900919506 
0.0022121294658 0.0022344816734 0.0022571552079 0.0022801480793 0.0023034723222 0.0023271276314 0.0023511282374 0.0023754767068 0.0024001828412 
0.0024254178906 0.002450867621 0.0024767035939 0.002502944492 0.0025295802316 0.002556638463 0.0025841583164 0.0026120891072 0.0026404776856 
0.002669329955 0.0026986595578 0.0027284661084 0.0027587677193 0.0027895749435 0.0028208832361 0.0028527013532 0.0028850356152 0.0029178933998 
0.0029512742654 0.0029852035595 0.0030198564132 0.0030549127907 0.003090546781 0.0031267779778 0.0031636268791 0.0032011025365 0.0032392191565 
0.0032779599278 0.0033174045699 0.0033575402499 0.0033983450658 0.0034398462769 0.0034820439248 0.0020293542092 0.0020491442449 0.0020692091691 
0.0020895421836 0.0021101588293 0.0021310534335 0.0021522381531 0.0021737193716 0.0021955024141 0.0022175916209 0.0022399978263 0.0022627116636 
0.0022857530999 0.00230912049 0.0023328230896 0.0023568708787 0.0023812739384 0.002406036133 0.0024313372953 0.0024568524181 0.0024827668295 
0.0025090748109 0.0025357918951 0.0025629638976 0.0025905416753 0.0026185629708 0.0026470389269 0.0026759780726 0.0027053896412 0.0027352783145 
0.0027656559381 0.0027965304011 0.0028278975302 0.0028597759657 0.0028921656705 0.0029250682475 0.0029585102494 0.0029926655725 0.0030272100503 
0.0030623223286 0.0030980263283 0.0031343202912 0.0031712296317 0.0032087634774 0.0032468939735 0.0032857174796 0.0033252146287 0.0033653629609 
0.0034061849228 0.0034476953093 0.0020152531691 0.0020348369767 0.002054690662 0.0020748072912 0.0020951979436 0.0021158702391 0.0021368216261 
0.0021580620885 0.0021795983013 0.0022014312848 0.0022235699426 0.0022460225221 0.0022687886947 0.0022918754604 0.0023152955708 0.0023390510725 
0.0023631569227 0.0023876188185 0.0024124446986 0.0024378214562 0.0024634164833 0.00248940075 0.0025157901356 0.0025425940404 0.0025698524549 
0.0025975149886 0.0026256252684 0.002654186382 0.0026832099225 0.0027126960688 0.0027426611955 0.0027731127366 0.0028040460428 0.0028354747392 
0.0028674111157 0.0028998502127 0.0029328179078 0.0029664926362 0.0030005445668 0.0030351514083 0.0030703300812 0.0031060917362 0.0031424522961 
0.0031794233305 0.0032170082157 0.0032551985614 0.0032940775412 0.0033335948746 0.0033737661657 0.003414611504 0.0020018269976 0.0020212092189 
0.0020408559716 0.0020607624655 0.0020809356859 0.0021013805269 0.0021221040316 0.0021431147353 0.0021644068815 0.0021859963817 0.0022078811173 
0.0022300752238 0.0022525720838 0.0022753892597 0.0022985327966 0.002322009426 0.0023458284572 0.0023699978451 0.0023945274854 0.0024196030459 
0.0024448905404 0.0024705593771 0.0024966257893 0.0025230986614 0.0025500171732 0.0025773341268 0.0026050857331 0.0026332797544 0.0026619230751 
0.0026910228179 0.0027205876617 0.0027506219286 0.0027811389672 0.002812135896 0.002843624558 0.0028756159083 0.0029081248151 0.0029411557249 
0.0029749053981 0.0030090219235 0.003043698522 0.0030789434396 0.0031147696604 0.0031511967222 0.0031882219212 0.0032258361098 0.0032641243428 
0.0033030322172 0.0033425831459 0.0033827799397 0.0019890786056 0.0020082643011 0.002027708188 0.0020474082559 0.0020673720379 0.0020875995122 
0.0021080967472 0.0021288743688 0.0021499324482 0.0021712800645 0.0021929189519 0.002214855408 0.0022371013981 0.0022596578733 0.0022825334645 
0.0023057375613 0.0023292773952 0.0023531641263 0.0023774050152 0.0024020116237 0.0024271770309 0.0024525429139 0.0024782954126 0.0025044479518 
0.0025310342657 0.0025580103556 0.0025854127003 0.0026132496579 0.0026415225176 0.0026702395083 0.0026994159145 0.0027290523386 0.0027591568766 
0.002789740651 0.0028208008133 0.0028523619091 0.0028844199303 0.0029169992835 0.0029502852722 0.002983925811 0.0030181148927 0.0030528628461 
0.0030881802046 0.0031240811894 0.0031605690423 0.0031976285847 0.0032353471363 0.0032736682066 0.0033126171249 0.0033522025237 0.0019769982238 
0.0019959908456 0.0020152370396 0.0020347358515 0.0020544922062 0.0020745078362 0.002094789576 0.0021153403603 0.0021361707662 0.002157282854 
0.0021786850875 0.0022003824543 0.0022223786309 0.0022446838617 0.0022672984836 0.0022902380216 0.0023135115538 0.0023371247463 0.0023610844698 
0.0023854027495 0.002410096209 0.0024353423486 0.0024607904497 0.0024866304151 0.0025128968131 0.002539539254 0.002566603065 0.0025940898932 
0.0026220031409 0.0026503535672 0.0026791536181 0.0027084001763 0.0027381098037 0.0027682880872 0.0027989360035 0.0028300762284 0.0028617046869 
0.0028938431717 0.0029266809055 0.0029598625083 0.0029935817226 0.0030278468666 0.0030626695088 0.0030980559509 0.0031340331021 0.0031705593647 
0.0032077297366 0.0032454871209 0.0032838574035 0.0033228524286 0.0019655772907 0.0019843822986 0.0020034326983 0.0020227370617 0.0020422907878 
0.0020621012137 0.0020821725465 0.0021025078346 0.0021231159281 0.0021439996532 0.0021651687223 0.0021866247651 0.0022083775186 0.002230444102 
0.0022528091835 0.0022754915896 0.0022985025355 0.0023218522863 0.002345542954 0.0023695823277 0.0023939899126 0.0024187596699 0.0024440994922 
0.0024696336736 0.0024955584179 0.0025219084413 0.0025486384975 0.0025757869425 0.0026033551376 0.0026313490164 0.0026597778337 0.0026886515918 
0.002717977607 0.0027477612837 0.0027780160959 0.0028087443163 0.0028399576446 0.0028716703121 0.0029038931802 0.0029368134134 0.0029700788407 
0.0030038794899 0.0030382282909 0.0030731227069 0.0031085933635 0.003144611459 0.0031812361469 0.0032184686575 0.0032562866365 0.0032947117222 
0.0019548040488 0.001973424967 0.0019922877376 0.0020113985912 0.0020307568808 0.0020503669941 0.0020702332132 0.0020903579998 0.002110749489 
0.0021314149918 0.0021523595286 0.0021735887697 0.0021951053872 0.0022169307376 0.0022390541374 0.0022614933813 0.0022842517938 0.0023073408814 
0.0023307704047 0.0023545441248 0.0023786726256 0.0024031625083 0.0024282142941 0.0024534517327 0.0024790707158 0.0025051109931 0.002531516977 
0.0025583352054 0.0025855661563 0.0026132124493 0.0026412865207 0.0026697962425 0.0026987508346 0.0027281541376 0.0027580228961 0.0027883552159 
0.0028191719604 0.0028504681361 0.002882270498 0.002914765919 0.0029475940057 0.0029809459436 0.0030148323604 0.0030492577524 0.0030842461404 
0.0031197649002 0.0031558871594 0.0031926010664 0.0032298847731 0.0032677707667 0.001944671118 0.0019631152011 0.0019817958319 0.0020007198772 
0.0020198867721 0.002039302844 0.0020589691712 0.0020788901352 0.0020990733576 0.0021195242505 0.002140250519 0.0021612587219 0.0021825520848 
0.002204140647 0.0022260325715 0.0022482313115 0.0022707472674 0.002293591031 0.0023167635068 0.0023402742137 0.0023641411039 0.002388353531 
0.0024129317808 0.00243807497 0.0024633999641 0.0024891357228 0.0025152331606 0.0025417279138 0.0025686296047 0.002595939903 0.0026236698156 
0.0026518285893 0.0026804204649 0.0027094556766 0.0027389450217 0.002768902414 0.0027993265127 0.0028302274605 0.0028616257686 0.0028937084934 
0.0029261135993 0.0029590336451 0.0029924786062 0.0030264504871 0.0030609754731 0.0030960554201 0.0031316528238 0.0031678728492 0.0032046467366 
0.003242012044 0.0019351724696 0.0019534448475 0.0019719499802 0.0019906956233 0.0020096762252 0.0020289017478 0.0020483752479 0.0020680991086 
0.0020880797327 0.0021083250387 0.0021288401042 0.0021496328874 0.0021707071617 0.0021920734054 0.002213735921 0.0022357083456 0.0022579896764 
0.0022805897995 0.0023035122512 0.0023267762859 0.00235038412 0.0023743339649 0.0023986350904 0.0024233014107 0.0024485384466 0.0024739780699 
0.0024997723979 0.0025259571337 0.0025525405607 0.0025795237585 0.0026069194567 0.0026347349937 0.0026629801741 0.0026916590853 0.0027207883376 
0.0027503691905 0.0027804219632 0.0028109380748 0.002841946968 0.0028736310289 0.0029056298286 0.0029381326078 0.0029711543147 0.0030046920234 
0.0030387729804 0.0030733964577 0.0031085274985 0.0031442716882 0.0031805611613 0.0032174221055 0.0019263024303 0.0019444095846 0.0019627464576 
0.0019813170366 0.0020001207032 0.0020191630401 0.0020384489455 0.0020579806332 0.0020777661861 0.0020978112826 0.0021181201659 0.0021387059497 
0.0021595694206 0.0021807200264 0.0022021653187 0.0022239165435 0.0022459691015 0.0022683369379 0.0022910233201 0.0023140398584 0.0023373967575 
0.0023610930687 0.002385129635 0.0024095221977 0.0024344800349 0.0024596337269 0.0024851340694 0.0025110162973 0.0025372908039 0.0025639557071 
0.0025910275387 0.0026185126729 0.002646422284 0.0026747560719 0.0027035337543 0.0027327603346 0.0027624477333 0.0027925986561 0.0028232232008 
0.0028543351961 0.002886130887 0.0029182371664 0.0029508492448 0.002983970952 0.003017628418 0.0030518171624 0.0030865073786 0.0031217919436 
0.0031576207649 0.0031940046697 0.0019180529107 0.0019360011335 0.0019541752793 0.0019725796067 0.0019912105575 0.0020100769974 0.00202918001 
0.0020485282188 0.0020681244634 0.0020879771772 0.0021080930505 0.002128478014 0.0021491381577 0.0021700817853 0.0021913180875 0.0022128502383 
0.0022346871056 0.0022568323757 0.0022792915332 0.0023020702181 0.0023251830337 0.0023486244059 0.0023724089698 0.0023965388979 0.002421023984 
0.0024460778846 0.0024713157731 0.0024969026171 0.0025228745781 0.0025492369012 0.002575993802 0.0026031592415 0.0026307407005 0.0026587421845 
0.0026871797313 0.0027160626919 0.0027453949961 0.002775193009 0.0028054532601 0.0028361930632 0.0028676143065 0.0028993370269 0.0029315629438 
0.002964285696 0.0029975352629 0.0030313107822 0.0030655781969 0.0031004288598 0.0031358081219 0.0031717443324 0.0019104189438 0.0019282148833 
0.001946232034 0.0019644723634 0.0019829412575 0.0020016376455 0.0020205657793 0.0020397368988 0.0020591527971 0.0020788205368 0.0020987458605 
0.0021189390551 0.0021394047023 0.0021601503283 0.0021811843363 0.0022025112782 0.0022241388966 0.0022460669309 0.0022683054132 0.0022908585815 
0.002313734545 0.0023369343485 0.0023604678916 0.0023843446282 0.0024085631537 0.0024331332518 0.0024583049009 0.0024836082582 0.0025092867784 
0.0025353519033 0.0025618057014 0.0025886587485 0.0026159250754 0.0026436051415 0.0026717132409 0.0027002639328 0.0027292600838 0.0027587111551 
0.0027886233099 0.0028190121786 0.0028500733679 0.0028814277165 0.0029132780435 0.0029456203285 0.0029784844394 0.0030118666218 0.0030457306575 
0.00308016895 0.0031151282449 0.0031506299732 0.0019033854509 0.0019210347447 0.0019389015908 0.0019569878362 0.0019752997167 0.001993832576 
0.0020125932332 0.0020315907476 0.0020508329936 0.0020703220956 0.0020900664069 0.0021100769801 0.0021303563631 0.0021509118212 0.0021717533296 
0.0021928830992 0.0022143087913 0.0022360305098 0.0022580570448 0.0022803897711 0.0023030419574 0.0023260034146 0.0023492981927 0.0023729232264 
0.0023968872689 0.0024211926561 0.002445877862 0.0024711175396 0.0024965141411 0.0025222845906 0.0025484446879 0.0025749992619 0.0026019581182 
0.0026293288847 0.0026571248542 0.0026853545484 0.0027140246043 0.0027431449716 0.0027727240056 0.0028027687591 0.0028332864152 0.0028644906017 
0.0028959808885 0.0029279627232 0.0029604565737 0.002993460898 0.0030269446641 0.0030609774746 0.0030955528748 0.0031306480754 0.0018969298716 
0.0019144402582 0.0019321646974 0.0019501039043 0.0019682623392 0.0019866391967 0.0020052399119 0.0020240720525 0.0020431454395 0.00206246541 
0.0020820376495 0.0021018711545 0.002121973229 0.0021423485098 0.0021630043768 0.0021839490601 0.0022051785149 0.0022267047221 0.0022485245716 
0.0022706461632 0.0022930776503 0.002315818689 0.0023388760909 0.0023622587708 0.0023859688634 0.0024100191435 0.0024344416217 0.0024594131542 
0.0024845310069 0.0025100216714 0.0025358964912 0.0025621607834 0.002588822769 0.0026158941309 0.0026433869493 0.0026713050431 0.0026996609291 
0.0027284619832 0.0027577165735 0.0027874390203 0.0028176249499 0.0028484913303 0.0028796425581 0.002911278701 0.0029434209497 0.0029760702438 
0.0030092240467 0.0030428566992 0.0030770505975 0.003111756446 0.0018910208285 0.0019083986393 0.0019259862093 0.0019437843644 0.001961796645 
0.0019800235527 0.0019984723853 0.0020171473625 0.0020360589108 0.0020552158078 0.0020746232474 0.0020942898999 0.0021142218451 0.0021344264772 
0.0021549065737 0.0021756701779 0.0021967163922 0.0022180468376 0.0022396728221 0.0022615917806 0.0022838134562 0.0023063359931 0.002329163325 
0.002352310073 0.0023757796475 0.0023995811151 0.0024237213088 0.0024482370735 0.0024733071015 0.002498524229 0.0025241222138 0.0025501052018 
0.002576478049 0.0026032633127 0.0026304612008 0.0026580795367 0.0026861346721 0.0027146270866 0.0027435683577 0.002772978871 0.0028028435361 
0.0028333891532 0.0028642142501 0.0028955221194 0.0029273358083 0.0029596422576 0.00299245541 0.0030257344218 0.0030595700623 0.0030939043641 
0.0018856084591 0.00190286159 0.0019203178262 0.0019379814319 0.0019558552848 0.0019739380431 0.0019922403278 0.0020107652341 0.0020295205191 
0.0020485210123 0.0020677734321 0.0020872816874 0.0021070527991 0.0021270912337 0.0021474069419 0.0021679976976 0.0021888677119 0.0022100179463 
0.0022314547561 0.002253176569 0.0022751968635 0.0022975035707 0.0023201134662 0.0023430314426 0.0023662631009 0.0023898209737 0.0024137117153 
0.0024379710732 0.0024625585207 0.0024877349946 0.0025130629179 0.0025387746167 0.0025648727297 0.0025913791009 0.0026182904846 0.0026456206471 
0.0026733822772 0.0027015783101 0.0027302195246 0.0027593263056 0.0027888842932 0.0028189238826 0.0028496395688 0.0028806288418 0.0029121224595 
0.0029441070606 0.0029765910189 0.0030095373393 0.0030430295076 0.0030770083677 0.0018806283037 0.001897759792 0.0019150916073 0.0019326254779 