# vtk DataFile Version 5.1
vtk output
ASCII
DATASET STRUCTURED_POINTS
DIMENSIONS 50 50 50
SPACING 0.002 0.002 0.002
ORIGIN 0.2174 -0.052672 0.02732
POINT_DATA 125000
FIELD FieldData 1
potential 1 125000 double
0.00089051815838 0.0008843201008 0.00087816931895 0.00087206198199 0.00086599824836 0.00085997652348 0.00085400499453 0.00084808329262 0.00084221405573 
0.00083640017454 0.00083064736582 0.00082495738433 0.00081933146717 0.00081377140967 0.00080827734274 0.00080286253598 0.00079749496721 0.00079218810187 
0.00078693649375 0.00078174147518 0.00077660049256 0.00077151120368 0.00076647420252 0.00076148939098 0.00075655735478 0.00075168018962 0.00074685963834 
0.00074209712568 0.00073739472635 0.00073275443056 0.00072817693596 0.00072366298592 0.00071921322478 0.00071482716363 0.00071050411244 0.0007062420833 
0.0007020406668 0.00069789827425 0.00069381511641 0.00068978904273 0.00068582218105 0.00068191353874 0.00067806193605 0.000674267325 0.00067053022955 
0.00066684678352 0.00066321573157 0.00065963253356 0.00065609449237 0.00065259890379 0.00089677746564 0.00089050309879 0.00088427752039 0.00087809765642 
0.00087196226628 0.00086587200174 0.00085983318426 0.00085384672635 0.00084791233339 0.00084203783718 0.00083622421249 0.00083047449502 0.00082478915804 
0.00081917147519 0.0008136186446 0.00080814616058 0.00080272091857 0.00079735596228 0.00079204744629 0.00078679442188 0.00078159655855 0.00077645112423 
0.00077135822979 0.00076631857695 0.00076133270392 0.00075640317136 0.0007515309394 0.0007467184218 0.00074196770679 0.0007372800221 0.00073265695986 
0.00072809848245 0.0007236052224 0.00071917621093 0.00071481176738 0.00071050879953 0.00070626655265 0.00070208370867 0.00069796048643 0.00069389546721 
0.00068989052689 0.00068594443519 0.00068205666276 0.0006782266573 0.00067445424379 0.00067073707613 0.00066707304283 0.00066345758976 0.00065988921674 
0.00065636285873 0.00090267116342 0.00089632208961 0.00089002297186 0.00088377199134 0.00087756920178 0.00087141123746 0.0008653077011 0.00085925850711 
0.00085326313863 0.00084732908858 0.00084145699764 0.00083564880015 0.00082990739541 0.00082423190114 0.00081862290548 0.0008130784015 0.00080761217716 
0.00080219076247 0.00079682607456 0.00079151826997 0.00078626506257 0.00078106546638 0.00077591969501 0.00077082781413 0.00076579118745 0.00076081146041 
0.00075589111435 0.00075103172007 0.00074623546438 0.00074150437517 0.00073683892847 0.00073223903357 0.00072770510263 0.00072323642853 0.0007188316276 
0.0007144902498 0.00071020922414 0.0007059888109 0.00070182698847 0.00069772468874 0.00069368169625 0.00068969950738 0.00068577569066 0.00068190993122 
0.00067810244747 0.00067435103422 0.00067065367422 0.00066700495883 0.00066340441994 0.00065984699596 0.00090811319622 0.00090169315903 0.00089532322184 
0.00088900460956 0.00088273636177 0.00087651481034 0.0008703495383 0.00086423983286 0.00085818631088 0.00085219479154 0.00084626679212 0.00084040369285 
0.00083460759619 0.00082887705652 0.00082321376275 0.00081761523132 0.00081207928464 0.00080661972656 0.00080120147229 0.00079584085219 0.00079053477421 
0.00078528365582 0.00078008725845 0.00077494586406 0.00076986167222 0.00076483564092 0.00075987039967 0.00075496811229 0.00075013041023 0.00074535875777 
0.0007406538302 0.00073601645034 0.00073144545996 0.00072693979042 0.00072249870965 0.00071812009295 0.0007138033301 0.00070954619553 0.00070534867941 
0.0007012100584 0.00069713159934 0.00069311369973 0.00068915441298 0.00068525304129 0.0006814104534 0.00067762472403 0.00067389381079 0.00067021354665 
0.00066658043753 0.00066299151664 0.00091303646421 0.00090654890017 0.00090011431108 0.0008937310118 0.00088740011437 0.00088112181585 0.00087489474311 
0.00086872716006 0.0008626200262 0.00085657397703 0.00085059292314 0.00084467711364 0.00083882899834 0.00083304703318 0.00082733167847 0.00082168165939 
0.0008160942065 0.00081056798496 0.00080511466748 0.00079970354528 0.00079434838933 0.00078904893451 0.00078380489218 0.00077861772182 0.00077348866195 
0.00076841987936 0.00076341386009 0.00075847207435 0.000753596499 0.00074878854187 0.0007440484152 0.00073937632583 0.00073477134176 0.00073023261985 
0.00072575789202 0.00072134535209 0.00071699540669 0.00071270438153 0.00070847319865 0.00070429992191 0.00070018800931 0.00069613527508 0.00069214143778 
0.00068820688805 0.00068433013321 0.00068051077431 0.00067674605588 0.00067303401443 0.00066936870914 0.00066574890807 0.00091739772034 0.00091084794422 
0.00090435182199 0.00089790863182 0.0008915191471 0.00088518467948 0.00087890317826 0.00087268192541 0.00086652252934 0.00086042613688 0.00085439460076 
0.00084842998729 0.0008425327479 0.00083670244053 0.00083093748234 0.0008252387287 0.00081960345091 0.0008140287438 0.00080851232929 0.00080306979505 
0.00079766933923 0.00079232427416 0.00078703597902 0.00078180657521 0.0007766367821 0.00077152824656 0.00076648481933 0.00076150770456 0.00075659808335 
0.0007517575086 0.00074698582096 0.00074228301568 0.00073764788174 0.00073307885397 0.00072857376203 0.00072413152792 0.00071975022883 0.0007154286874 
0.00071116498992 0.00070695984364 0.00070281517043 0.0006987295275 0.00069470306102 0.0006907358969 0.00068682680871 0.00068297524211 0.00067917849863 
0.00067543513686 0.0006717391172 0.00066808943304 0.00092117881392 0.00091457187208 0.00090801875126 0.00090152028909 0.00089507668649 0.00088868993523 
0.00088235645981 0.00087608730637 0.00086987944856 0.00086373590032 0.00085765791085 0.00085164732651 0.0008457036555 0.00083982755 0.00083401777236 
0.00082827297751 0.0008225924062 0.00081697308067 0.00081141255289 0.00080591014007 0.00080048326674 0.0007950960285 0.00078976764499 0.00078449915886 
0.00077929211603 0.00077414815795 0.00076907099133 0.00076406125721 0.00075912152951 0.00075425190495 0.00074945233473 0.0007447227538 0.00074006032847 
0.00073546466949 0.00073093285504 0.00072646332523 0.0007220536049 0.00071770391319 0.00071341114557 0.00070917620319 0.00070500090006 0.00070088404226 
0.00069682659311 0.00069282788471 0.00068888854356 0.00068500610791 0.00068117900667 0.00067740577953 0.00067368052006 0.00067000332544 0.00092439104237 
0.00091773032044 0.00091112572668 0.00090457688098 0.0008980841807 0.00089164932312 0.00088526828242 0.0008789543267 0.00087270246642 0.00086651455132 
0.00086039344352 0.00085433936084 0.00084835341692 0.00084243458604 0.00083658294694 0.00083079509764 0.00082507216865 0.00081941150296 0.00081380955774 
0.00080826631913 0.00080278422444 0.00079737466346 0.00079200970078 0.0007867059485 0.00078146548821 0.00077628997477 0.00077118244036 0.00076614425338 
0.00076117759776 0.00075628195201 0.0007514584581 0.00074670414307 0.00074201819783 0.00073739894051 0.00073284342654 0.00072834897561 0.000723914578 
0.0007195383395 0.00071521884589 0.00071095681434 0.00070675293481 0.00070260836784 0.00069852190164 0.00069449385988 0.00069052490084 0.00068661394738 
0.00068275803032 0.00067895619129 0.00067520497881 0.00067149909104 0.00092706872421 0.00092036111687 0.00091370974486 0.00090711550978 0.00090057844422 
0.00089409783598 0.00088767647583 0.00088132009238 0.00087502701934 0.00086879913655 0.0008626372637 0.00085654304579 0.00085051699612 0.00084455843598 
0.00083866681734 0.00083283956387 0.00082707769848 0.00082137776801 0.00081573774602 0.00081015767668 0.00080463872971 0.00079919603781 0.00079379709501 
0.00078846140929 0.00078319104168 0.00077798742786 0.00077285196812 0.00076778850535 0.00076279745663 0.00075788097768 0.00075303535809 0.00074825987344 
0.0007435533573 0.00073891287531 0.00073433657305 0.00072982001421 0.00072536210607 0.00072096176199 0.00071661867729 0.00071233155054 0.00070810141252 
0.00070392918062 0.00069981525562 0.00069576009078 0.00069176394669 0.0006878258855 0.00068394263283 0.00068011422674 0.00067633672067 0.00067260582217 
0.00092927562281 0.00092252693047 0.0009158341882 0.00090919852985 0.00090262148272 0.00089610124592 0.00088964145595 0.00088324669328 0.00087691365583 
0.00087064768086 0.00086444840506 0.00085831604442 0.00085225286656 0.00084625734894 0.00084032789272 0.00083446349373 0.00082866437378 0.00082292810138 
0.00081725384003 0.00081163935153 0.00080608755905 0.0008005973581 0.00079518506511 0.00078982034043 0.00078452245887 0.00077929323184 0.0007741343244 
0.00076904851679 0.00076403660943 0.00075909923869 0.00075423392247 0.00074943998515 0.00074471444843 0.00074005542818 0.00073545928293 0.00073092289861 
0.00072644467148 0.00072202284546 0.00071765628943 0.00071334674536 0.00070909184747 0.00070489509243 0.00070075566593 0.00069667517498 0.00069265354797 
0.00068868937347 0.00068478151689 0.00068092751269 0.00067712598482 0.00067337106389 0.00093108756918 0.00092430128709 0.00091757296999 0.00091090166281 
0.00090428657042 0.00089773281922 0.0008912370308 0.00088480710405 0.00087844067889 0.00087213969686 0.000865904942 0.00085973748632 0.00085363744941 
0.00084760586182 0.00084164004976 0.00083574148455 0.00082990700088 0.00082413697685 0.00081842988884 0.00081278357034 0.00080720174917 0.00080168237355 
0.00079622567144 0.00079085170635 0.00078552972585 0.00078027779219 0.0007750976221 0.00076999140352 0.00076496131246 0.00076000525172 0.00075512277125 
0.00075031155424 0.00074556907544 0.0007408927375 0.00073627842569 0.00073172385936 0.00072722647006 0.00072278372329 0.00071839646755 0.00071406580367 
0.00070978895756 0.00070556932882 0.00070140662322 0.00069730202904 0.00069325610711 0.00068926792272 0.00068533632714 0.00068145877247 0.0006776330804 
0.0006738552437 0.00093259984448 0.00092578143594 0.0009190195576 0.00091231626129 0.000905669992 0.00089908322544 0.00089255736018 0.00088609233815 
0.00087969310442 0.00087335924791 0.000867091174 0.00086088952783 0.00085475613349 0.00084868978499 0.00084269093251 0.00083675787066 0.00083089079929 
0.00082508899173 0.00081934954847 0.00081367381084 0.00080806239084 0.00080251665151 0.00079703557527 0.00079162095144 0.00078629411433 0.00078102164772 
0.00077582223555 0.00077069827736 0.00076565010855 0.00076067745482 0.00075577913819 0.00075095203321 0.00074619382863 0.0007415007957 0.00073686935866 
0.00073229748925 0.00072778188387 0.00072332049289 0.00071891389581 0.00071456257486 0.00071026498238 0.00070602426285 0.00070183946376 0.00069771289619 
0.00069364414405 0.00068963322266 0.00068567864139 0.00068177840293 0.00067793034692 0.00067413113386 0.00093391346595 0.00092706463722 0.00092027339872 
0.00091354034227 0.00090686475669 0.00090024889288 0.00089369372221 0.00088719817105 0.00088076746221 0.00087440106897 0.00086810053488 0.00086186639279 
0.00085569989618 0.00084960092726 0.00084356763008 0.0008376013765 0.00083170175335 0.00082586923622 0.0008201005891 0.00081439660068 0.00080876018533 
0.00080318920673 0.00079768545528 0.00079225002037 0.00078688602958 0.0007816107127 0.00077639381034 0.00077125314964 0.00076618854555 0.00076119997871 
0.0007562859395 0.00075144406911 0.00074666988347 0.00074196054055 0.00073731288641 0.00073272414061 0.00072819115819 0.0007237115433 0.00071928657514 
0.00071491505315 0.00071059779344 0.00070633651373 0.0007021314397 0.00069798322218 0.00069389302491 0.00068986009541 0.00068588382898 0.00068196149686 
0.00067809107892 0.00067426984361 0.00093512389032 0.00092824826761 0.00092143065446 0.00091466911765 0.00090796714037 0.00090132325974 0.00089473924309 
0.00088821570043 0.00088175488484 0.00087535799566 0.00086902600531 0.00086275954769 0.00085656083355 0.00085042805953 0.00084436235843 0.00083836305111 
0.00083243222014 0.00082656814586 0.00082077141098 0.00081504033487 0.00080937832746 0.00080378440307 0.0007982591821 0.00079280397981 0.00078742170037 
0.0007821129781 0.00077689701954 0.00077174063633 0.00076666081914 0.00076165687363 0.00075672549506 0.00075186791257 0.00074707799507 0.00074235241755 
0.00073768877847 0.00073308265328 0.00072853187576 0.00072403466971 0.00071959130872 0.00071520090068 0.00071086432437 0.00070658335554 0.00070235798698 
0.00069818990585 0.00069407849328 0.00069002434457 0.00068602577451 0.00068208149485 0.00067818952915 0.00067434599633 0.00093632356122 0.00092942252417 
0.0009225796304 0.00091579286555 0.00090906502771 0.00090239578093 0.00089578488866 0.00088923217134 0.00088274256589 0.00087631573571 0.00086995238423 
0.00086365413512 0.00085742259241 0.00085125654411 0.0008451580231 0.00083912769851 0.00083316417628 0.00082726994497 0.00082144529249 0.00081568749105 
0.00081000067107 0.00080438454419 0.00079883895559 0.00079336493132 0.0007879645528 0.00078263970276 0.00077740801306 0.00077223614613 0.0007671410531 
0.00076212111324 0.00075717572255 0.00075230173672 0.00074749529353 0.00074275299835 0.00073807079462 0.00073344681757 0.00072887848695 0.00072436346951 
0.00071990190949 0.00071549303747 0.00071113762036 0.00070683750993 0.00070259217794 0.00069840355479 0.00069427124468 0.0006901957833 0.00068617534382 
0.00068220849344 0.00067829410541 0.00067442788479 0.0009375953407 0.00093067011759 0.00092380124426 0.000916991328 0.00091023840373 0.00090354339243 
0.00089690572928 0.00089032495039 0.00088380649156 0.00087734898167 0.00087095523904 0.00086462547721 0.00085836043591 0.00085216151395 0.0008460302639 
0.00083996739006 0.00083397416422 0.00082804846635 0.00082219512234 0.00081641087209 0.00081070015651 0.00080506137669 0.00079949546703 0.00079400335109 
0.00078858587902 0.00078324474854 0.00077797993591 0.00077281017093 0.00076769916212 0.00076266397999 0.00075770151857 0.00075281058133 0.00074798671315 
0.00074322691905 0.00073852712592 0.00073388560188 0.00072929869884 0.00072476589606 0.00072028383394 0.0007158561076 0.00071148122025 0.00070716121546 
0.00070289681344 0.0006986873515 0.00069453334689 0.00069043602703 0.00068639386347 0.000682403624 0.00067846571186 0.00067457706195 0.00093900815021 
0.00093205860801 0.00092516503873 0.00091832996649 0.00091155158399 0.00090483063634 0.00089816647863 0.00089155878155 0.00088501107347 0.00087852361535 
0.0008720975261 0.0008657357599 0.00085943729225 0.00085320562794 0.00084704171016 0.00084094602437 0.00083492125164 0.00082896626068 0.00082308318997 
0.00081727303123 0.00081153691138 0.00080587654746 0.00080028999208 0.00079477928692 0.00078934451469 0.00078398657312 0.00077870548186 0.00077350241957 
0.0007683930727 0.00076334121844 0.00075836184271 0.00075345287348 0.00074861102628 0.0007438322308 0.00073911289422 0.00073445169426 0.00072984529572 
0.00072529320892 0.00072079354578 0.00071634666333 0.00071195192258 0.00070761211065 0.00070332543494 0.00069909455145 0.00069491867665 0.00069079802126 
0.00068673233851 0.00068271980546 0.00067875753086 0.00067484482914 0.00094061668814 0.00093363964192 0.00092672183801 0.00091986201754 0.00091305792623 
0.00090631011608 0.00089961851264 0.00089298271735 0.00088640618625 0.00087988824647 0.00087343073726 0.0008670360314 0.00086070474742 0.00085443991505 
0.00084824206407 0.00084211348073 0.0008360564729 0.00083007085445 0.0008241604093 0.00081832205325 0.00081256131807 0.00080687811782 0.00080127204047 
0.00079574113131 0.00079028850959 0.00078491326261 0.00077961496602 0.00077439542078 0.00076925167814 0.00076419976997 0.00075920191082 0.00075427379079 
0.00074941225664 0.00074461449426 0.00073987530074 0.00073519400633 0.00073056696571 0.00072599370928 0.00072147375398 0.00071700613283 0.00071259051751 
0.0007082291312 0.00070392221613 0.00069966844452 0.00069546995972 0.00069132428881 0.00068723477275 0.00068319655285 0.00067920985977 0.00067527119101 
0.00094246363557 0.0009354595556 0.00092851490229 0.0009216273035 0.00091479593875 0.00090802061843 0.00090130082112 0.00089463627346 0.00088803002622 
0.000881480693 0.00087499237782 0.00086856460241 0.00086219983448 0.0008559008816 0.00084967023284 0.00084350850321 0.00083741881406 0.00083140226364 
0.00082546282894 0.00081959821748 0.00081381171507 0.00080810451582 0.00080247630082 0.00079692626811 0.00079145418732 0.00078606080024 0.00078074509131 
0.00077550806415 0.00077034595678 0.00076527519767 0.0007602583944 0.00075530986871 0.00075042848885 0.00074560938183 0.00074084905631 0.00073614588009 
0.00073149730849 0.0007269028026 0.00072236066032 0.00071787046005 0.00071343170094 0.00070904775888 0.00070471650259 0.00070043985723 0.00069621681283 
0.00069204778784 0.00068793181687 0.00068386786197 0.00067985313889 0.00067588795498 0.00094458345959 0.00093754519895 0.00093057146388 0.00092365542302 
0.00091679494137 0.00090999073087 0.00090324223115 0.00089654920111 0.00088991005833 0.00088333044743 0.00087680884582 0.00087034843643 0.00086395007853 
0.00085761724076 0.00085135244727 0.00084515737016 0.00083903519822 0.00083298840755 0.00082701903969 0.00082112793876 0.00081531547725 0.00080958257537 
0.00080393121137 0.00079836043162 0.00079286879145 0.00078745540986 0.00078212190755 0.00077686558708 0.00077168410616 0.00076657591932 0.0007615572891 
0.00075658856999 0.00075168510669 0.0007468434708 0.0007420607263 0.00073733471577 0.00073266308419 0.00072804462574 0.00072347876207 0.00071896491998 
0.00071450200448 0.00071009269277 0.00070573669442 0.0007014343622 0.00069718498638 0.0006929888165 0.00068884545365 0.00068475415846 0.00068071301394 
0.00067671978661 0.00094698789646 0.00093991725202 0.00093291166201 0.00092596411975 0.0009190733283 0.00091223900362 0.00090545906297 0.00089873581472 
0.00089206573923 0.00088545465078 0.00087889949768 0.00087240565284 0.00086597376727 0.00085960697054 0.00085330809353 0.00084707920141 0.00084092502426 
0.00083484704833 0.00082884752447 0.00082292828707 0.0008170894842 0.00081133054278 0.00080565599884 0.00080006304314 0.00079455052422 0.00078911776524 
0.00078376384722 0.00077848741254 0.00077328534633 0.00076815686616 0.00076309874234 0.00075812606056 0.00075320021575 0.00074833540543 0.00074352891438 
0.00073877856394 0.00073408177102 0.00072943841796 0.00072484716754 0.00072030693168 0.00071581762116 0.00071138141691 0.00070699836619 0.00070266739717 
0.00069839017852 0.00069416503132 0.00068999262509 0.00068587158392 0.00068180095299 0.00067777824046 0.00094969678332 0.00094259350344 0.00093554680819 
0.00092856610214 0.00092164286305 0.00091477555467 0.00090796424969 0.00090120931038 0.00089450704998 0.00088786300234 0.00088127647754 0.00087474749207 
0.00086828188721 0.0008618810506 0.00085554834136 0.00084928610783 0.00084309919201 0.00083699047773 0.00083096058494 0.00082501215491 0.00081914596403 
0.00081336331019 0.00080766210176 0.0008020460369 0.00079651193037 0.00079105818196 0.00078568302618 0.00078038489006 0.00077516236077 0.00077001212387 
0.00076493185922 0.00075991811432 0.00075498610309 0.00075009689811 0.00074526579087 0.00074048889752 0.00073576624002 0.00073109515191 0.00072647589909 
0.00072190770181 0.00071739141821 0.00071292592722 0.00070851263882 0.00070415124021 0.00069984249459 0.00069558666502 0.00069138302386 0.00068723058142 
0.00068312838826 0.0006790757344 0.00095270787603 0.00094556642756 0.00093849205362 0.00093146797733 0.00092451035211 0.00091760979434 0.00091076547035 
0.00090397606642 0.000897241675 0.00089056362593 0.00088394364644 0.00087738131657 0.00087088158127 0.00086444661836 0.00085808063731 0.00085178531355 
0.00084556521841 0.00083942408351 0.00083336374422 0.00082738647673 0.00082149197707 0.00081568315067 0.0008099590909 0.00080431715204 0.00079876011491 
0.00079328342109 0.00078788668825 0.000782567206 0.00077732288111 0.00077214976679 0.00076704624034 0.00076200870223 0.00075705143651 0.00075213614969 
0.00074727858501 0.000742474216 0.00073772262092 0.00073302339449 0.0007283745991 0.00072377634912 0.00071922784032 0.0007147308882 0.00071028488243 
0.00070589175788 0.00070155028381 0.00069726093284 0.00069302346018 0.00068883862004 0.0006847037973 0.00068061859667 0.00095602876946 0.0009488471572 
0.00094173452352 0.00093468124664 0.00092767868038 0.00092074230656 0.00091386336799 0.00090704036649 0.00090027026412 0.00089355848006 0.00088690433405 
0.00088030896172 0.00087377459405 0.00086730567424 0.00086090559643 0.00085457737786 0.00084832513394 0.00084215220934 0.00083606090275 0.00083005454761 
0.00082413216916 0.00081829656729 0.00081254641438 0.0008068815443 0.00080129840193 0.00079579917073 0.00079037987444 0.00078503792687 0.00077977005826 
0.00077457353727 0.00076944622727 0.000764383364 0.00075938213098 0.00075445831128 0.00074957102549 0.00074473757701 0.00073995652926 0.0007352258804 
0.00073054530926 0.00072591406605 0.00072133209645 0.00071680057785 0.0007123197167 0.00070789137819 0.00070351479051 0.00069919048447 0.00069491838467 
0.00069069850618 0.00068652926968 0.00068240990859 0.00095966088586 0.00095243690036 0.00094528230121 0.00093818913823 0.00093115710158 0.0009241748122 
0.00091725848875 0.00091039894365 0.00090359397092 0.00089684686733 0.00089015820448 0.000883528315 0.00087695985106 0.00087045789098 0.00086402451254 
0.00085766273171 0.00085137829374 0.00084517398605 0.00083905210919 0.00083301621879 0.00082706658089 0.00082120444663 0.00081542828115 0.00080973829107 
0.00080413244372 0.00079860688227 0.0007931634614 0.00078779823988 0.00078250658269 0.00077728449068 0.0007721317438 0.00076704266752 0.00076201457714 
0.0007570431937 0.00075214513487 0.00074728091912 0.00074246747328 0.00073770404363 0.00073299015968 0.00072832323037 0.00072370474855 0.0007191369686 
0.0007146196668 0.00071015393565 0.00070573986286 0.00070137835169 0.00069707022493 0.00069281273395 0.0006886077969 0.00068445246409 0.00096360585957 
0.00095633638999 0.00094913691168 0.00094200328666 0.00093492986329 0.00092790752176 0.00092095358496 0.00091405518954 0.0009072140083 0.00090043251529 
0.00089370917521 0.00088704539877 0.00088044244714 0.00087390677359 0.00086744026872 0.00086104581938 0.00085472971681 0.00084849415092 0.00084234215065 
0.00083627616416 0.0008302976503 0.00082440734227 0.00081860495071 0.00081288966811 0.00080725874502 0.0008017101492 0.00079623978557 0.00079084979645 
0.00078553237222 0.00078028531143 0.00077510496054 0.00076998730994 0.0007649303003 0.00075992934648 0.00075500034687 0.00075010372185 0.00074525673223 
0.00074045783495 0.00073570636087 0.00073100231392 0.00072634544452 0.00072173871721 0.00071718229728 0.00071267734945 0.00070822430462 0.00070382379221 
0.00069947670083 0.00069518168542 0.00069093852989 0.00068674704203 0.00096786114317 0.00096054437742 0.0009532999359 0.00094612162737 0.00093900494169 
0.00093195037152 0.00092494728593 0.00091801058655 0.00091113175 0.00090431265009 0.0008975528718 0.00089085377595 0.00088421808116 0.00087764866828 
0.0008711484054 0.00086472162945 0.000858373792 0.00085210794414 0.00084592581335 0.00083983087739 0.00083382269167 0.0008279054984 0.00082207676283 
0.00081633467415 0.00081067784602 0.00080510373722 0.00079960742939 0.00079419003909 0.00078884683814 0.00078357240409 0.00077836272791 0.00077321594325 
0.0007681282207 0.0007630959087 0.0007581151031 0.00075320300655 0.00074832033376 0.00074348433127 0.00073869430963 0.00073395078653 0.00072925394841 
0.00072460633229 0.00072000900062 0.00071546187833 0.00071096725677 0.00070652625001 0.00070213787873 0.00069780300196 0.00069352135404 0.00068929041915 
0.00097242797545 0.0009650657352 0.00095776653499 0.00095054075814 0.00094337944747 0.00093628154361 0.00092924617642 0.00092226015074 0.00091534195738 
0.000908485575 0.00090169004036 0.00089495647065 0.00088828598758 0.00088168302417 0.00087515072258 0.00086869195098 0.00086231235096 0.00085601560733 
0.00084980413005 0.0008436804207 0.00083764333536 0.00083169794725 0.00082584205452 0.00082007279423 0.00081438870126 0.00080878781135 0.00080326593732 
0.00079781853822 0.00079244659666 0.00078714282929 0.00078190365426 0.00077672521785 0.00077160480121 0.00076653830198 0.00076152222642 0.00075655478851 
0.00075165299738 0.0007467778294 0.00074194762129 0.00073716354156 0.0007324249725 0.00072773473133 0.00072309398651 0.00071850420448 0.00071396712236 
0.00070948294747 0.00070505358911 0.00070067781592 0.0006963555888 0.00069208596902 0.00097730607857 0.0009698908803 0.0009625407855 0.00095526456452 
0.00094805703757 0.00094091405294 0.0009338339493 0.00092681536828 0.00091984799541 0.00091295262215 0.00090611946822 0.00089935039172 0.00089264586123 
0.0008860090469 0.00087944425055 0.0008729552275 0.00086654483674 0.0008602180189 0.00085397668096 0.00084782325454 0.00084175836789 0.0008357842313 
0.00082989884157 0.0008241019665 0.00081838996524 0.00081276031017 0.00080720964172 0.00080173376423 0.00079632828772 0.00079099285194 0.00078572086253 
0.00078050922546 0.00077535287012 0.00077025055605 0.00076519729148 0.00076019133984 0.00075525013392 0.00075033417665 0.00074546262175 0.00074063607326 
0.00073585429359 0.00073112043475 0.00072643573466 0.00072180175182 0.00071722092747 0.0007126939909 0.00070822171761 0.000703804063 0.00069944077987 
0.00069513123007 0.00098249740874 0.00097502680971 0.00096762317149 0.00096029587111 0.00095303749958 0.00094584663669 0.00093872038957 0.0009316584244 
0.00092464914136 0.00091771391669 0.00091084272527 0.00090403685268 0.00089729705184 0.00089062697446 0.00088402983946 0.00087750966977 0.0008710695509 
0.00086471237215 0.00085844032688 0.00085225896813 0.00084616473824 0.00084016161338 0.00083424677378 0.00082841966349 0.00082267720063 0.00081701640302 
0.00081143344917 0.00080592534657 0.00080048872196 0.00079511613701 0.0007898088301 0.00078456008408 0.00077936655569 0.00077422544102 0.00076913319753 
0.000764086148 0.00075908523113 0.00075414617057 0.0007492316152 0.00074436123464 0.00073953563702 0.00073475708587 0.00073002823597 0.00072534977668 
0.00072072486507 0.00071615423285 0.0007116387409 0.00070717893644 0.00070277448058 0.00069842361675 0.00098800478563 0.00098047545518 0.00097301643043 
0.00096563407804 0.00095832361655 0.00095108223255 0.00094390760925 0.00093679887979 0.00092975552921 0.00092276904106 0.00091585414544 0.00090901065959 
0.00090223571038 0.00089553220869 0.00088890179316 0.00088235113865 0.00087588029621 0.00086949298843 0.00086319130309 0.00085697894746 0.00085085426504 
0.00084482068738 0.00083887474041 0.00083301516178 0.00082723971473 0.00082154599934 0.00081592929843 0.00081038545886 0.00080491211532 0.00079950311497 
0.00079415456222 0.00078886591968 0.00078363301194 0.00077845019943 0.00077331572639 0.0007682279381 0.0007631828241 0.00075818186758 0.00075324196722 
0.00074832716512 0.00074345705771 0.00073863420085 0.00073386040644 0.00072913765427 0.00072446888291 0.00071985905299 0.00071530103842 0.00071079939768 
0.00070635329776 0.00070196128982 0.00099384474864 0.0009862346106 0.00097871588211 0.00097127695024 0.00096391036172 0.00095661698792 0.00094939035568 
0.00094223330541 0.00093514336112 0.00092812322822 0.00092116185653 0.00091428019242 0.00090746873242 0.00090072999104 0.00089406710629 0.00088748362051 
0.0008809815167 0.00087456387983 0.00086823263311 0.00086198830234 0.0008558317024 0.00084976538543 0.00084378643511 0.00083789220364 0.00083208176779 
0.00082635192364 0.00082069634965 0.00081511241742 0.00080959861239 0.000804148811 0.00079875768951 0.00079342654951 0.00078814983873 0.00078292291674 
0.00077774422037 0.00077261219006 0.00076752305785 0.00076247730737 0.00075749284514 0.00075253270186 0.00074761871981 0.00074275147317 0.00073793376288 
0.00073316737957 0.00072845493177 0.0007237979858 0.00071919743741 0.00071465398878 0.00071016603799 0.00070573395763 0.00099998652859 0.00099231148648 
0.00098472952432 0.00097723092274 0.00096980624295 0.00096245632665 0.00095517595871 0.0009479679907 0.00094082968626 0.00093376355124 0.00092676845848 
0.0009198355685 0.00091298680267 0.00090621181587 0.00089951455241 0.00089289856912 0.0008863645158 0.00087991502287 0.00087355188463 0.00086727599538 
0.00086108511698 0.00085498397908 0.00084896849351 0.0008430379278 0.00083718842885 0.00083141683605 0.00082571965047 0.00082009285028 0.00081453423664 
0.00080903924449 0.00080360427254 0.0007982241932 0.00079290059157 0.00078762738666 0.00078240191874 0.00077722430398 0.00077208955385 0.00076699901346 
0.00076195072004 0.00075696473506 0.00075200664289 0.00074709520982 0.00074223315865 0.00073742373255 0.00073266938253 0.00072797083905 0.00072332931141 
0.00071874504033 0.00071421730745 0.00070974520468 0.0010064420773 0.00099869883243 0.00099105114889 0.00098348840636 0.00097600399149 0.00096859486354 
0.00096125697733 0.00095399375566 0.00094680339058 0.00093968776153 0.00093264704114 0.00092567158483 0.00091878248 0.00091196969901 0.00090523737041 
0.00089858707308 0.00089202057053 0.00088553677906 0.00087914034139 0.00087282988256 0.0008666039704 0.00086046384972 0.00085441054564 0.0008484386865 
0.00084254637705 0.00083672926453 0.00083098677452 0.00082531247432 0.00081970522321 0.00081416006783 0.0008086752784 0.00080324824409 0.00079787228785 
0.0007925494206 0.00078727630547 0.00078205046438 0.00077686929863 0.00077173207064 0.00076663941958 0.00076158908357 0.00075660599692 0.00075165207358 
0.00074674828204 0.00074189725865 0.00073710187298 0.00073236264633 0.00072768133568 0.00072305767239 0.00071849137155 0.00071398097436 0.0010132032857 
0.0010054088456 0.00099767371826 0.00099004377628 0.00098249403043 0.00097502154386 0.00096762375132 0.00096030185125 0.0009530561112 0.00094588835784 
0.00093879862336 0.00093178772494 0.00092484535863 0.00091799302603 0.00091122334196 0.00090453690499 0.00089793394563 0.00089141599475 0.00088498324243 
0.00087863537097 0.00087237049682 0.00086619154777 0.00086009517336 0.00085407823128 0.00084813818949 0.00084227295902 0.00083647969556 0.0008307541968 
0.00082509358341 0.00081949521662 0.00081395739119 0.00080847659551 0.00080305053551 0.00079767424803 0.00079235094416 0.00078707497152 0.00078184502931 
0.00077666095398 0.00077152298237 0.00076642967384 0.00076140379187 0.0007564078909 0.00075146320908 0.00074657205876 0.00074173697282 0.00073695895133 