# vtk DataFile Version 5.1
vtk output
ASCII
DATASET STRUCTURED_POINTS
DIMENSIONS 50 50 50
SPACING 0.002 0.002 0.002
ORIGIN 0.2174 -0.052672 0.02732
POINT_DATA 125000
FIELD FieldData 1
potential 1 125000 double
0.011115919965 0.011330611336 0.011550672984 0.011776101086 0.012007060191 0.01224372456 0.01248626807 0.012734896083 0.012989775582 
0.01325108486 0.013518960672 0.013793577968 0.014075120248 0.014363571322 0.014659065107 0.014961685375 0.015271505813 0.015588771341 
0.015913255766 0.016245219615 0.016584779521 0.016932064694 0.01728720996 0.017650377752 0.018021692858 0.018401275942 0.018789259471 
0.01918582452 0.019590937098 0.020004715735 0.020427118965 0.020858314345 0.021298165645 0.021746810606 0.02220406771 0.022670158158 
0.023144757779 0.023627727103 0.024118783558 0.024618140345 0.025125512794 0.025640849032 0.026163287776 0.026693204216 0.027229885565 
0.027772859392 0.028321682695 0.028875745244 0.029434684741 0.02999743698 0.010984392253 0.011194039971 0.011408797366 0.011628774678 
0.011854072524 0.01208482554 0.012321192937 0.012563418041 0.012811640264 0.013066009724 0.013326647559 0.013593732646 0.013867338911 
0.014147624629 0.014434532282 0.01472820118 0.015028678233 0.015336199171 0.015650531956 0.015971874364 0.016300400708 0.016636205099 
0.016979395778 0.017330129752 0.017688530202 0.018054696136 0.018428747073 0.018810779328 0.019200981077 0.019599202089 0.020005577394 
0.02042009283 0.020842628405 0.021273267016 0.021712056729 0.02215879921 0.022613661162 0.023076307232 0.023546431184 0.02402437619 
0.024509429403 0.025001801977 0.025501286338 0.026006957735 0.026519148595 0.027037213301 0.027560576873 0.028088713508 0.028621197763 
0.02915738095 0.010850611485 0.011055286992 0.011264853016 0.011479365456 0.01169903104 0.011923993913 0.01215434544 0.0123903145 
0.012631985472 0.012879556849 0.013133138021 0.013392816282 0.013658734401 0.013930940734 0.014209540089 0.014494478998 0.014785861771 
0.015083757475 0.015388372447 0.015699489684 0.016017346673 0.016341998778 0.016673657062 0.017012417034 0.017358368392 0.01771166074 
0.018072348581 0.018440512947 0.018816285844 0.019199734847 0.019590714169 0.019989314097 0.020395507031 0.020809196797 0.021230151334 
0.021658714124 0.022094562498 0.022538124229 0.02298833378 0.023445603551 0.023909718635 0.024380741123 0.024858036203 0.025341346548 
0.025830181791 0.026324610168 0.026823956759 0.027327676678 0.027835403965 0.028346284001 0.010713358143 0.010913368891 0.011117680203 
0.011326895525 0.011540983422 0.011760179354 0.011984585692 0.01221433743 0.012449602443 0.012690493097 0.012937138204 0.013189564753 
0.01344794518 0.013712279431 0.01398264151 0.01425910735 0.014541614793 0.014830277943 0.01512528495 0.015426410214 0.01573389197 
0.016047836275 0.016368334853 0.016695439069 0.01702939217 0.017370252161 0.017718065196 0.018072932006 0.018434917077 0.018804014746 
0.019180341758 0.019563688062 0.019954091253 0.020351550454 0.020755914309 0.021167197743 0.021584921791 0.022009584416 0.022441313343 
0.022879063403 0.023323178151 0.023773454738 0.024229654276 0.024691910906 0.025158996027 0.025631116671 0.026107464298 0.026588096373 
0.02707225931 0.027559454822 0.010572263153 0.010767087256 0.01096641216 0.011170287689 0.011379025871 0.011592509682 0.011811018541 
0.012034657296 0.012263561581 0.012497850268 0.012737620661 0.012982951209 0.013233901955 0.013490518114 0.013752846939 0.014020906099 
0.014294759598 0.014574392585 0.014859871282 0.015151409425 0.015448791875 0.015752246854 0.016061895424 0.01637784069 0.016700168876 
0.017028916942 0.017364296213 0.017706296413 0.018054995303 0.018410372471 0.018772420473 0.019141204845 0.019516480275 0.019898324773 
0.020286578189 0.020681206243 0.021082190842 0.02148914903 0.021902171342 0.022321709079 0.02274677053 0.023177483499 0.023613679942 
0.024055088172 0.024501566882 0.024952557792 0.025407759701 0.025866099534 0.026327991212 0.026792677592 0.010426546819 0.010616463267 
0.010810678374 0.011009176211 0.011212419933 0.01142025556 0.011633010989 0.011850599233 0.012073208954 0.012300976588 0.012533969613 
0.012772256294 0.013015885507 0.013264899564 0.013519313215 0.01377916392 0.014044493909 0.014315262306 0.014591570922 0.014873579167 
0.015161094296 0.015454343604 0.015753416431 0.01605842864 0.016369455509 0.016686572938 0.01700992692 0.017339386316 0.017675237553 
0.018017356198 0.018365716924 0.018720293194 0.019081004639 0.019447960726 0.0198207074 0.020199384785 0.020583946765 0.020974168467 
0.021369868752 0.02177122312 0.022178221681 0.022590209587 0.023007290032 0.023429181627 0.023855734481 0.024286361499 0.024720779151 
0.025158650025 0.025599233473 0.02604264348 0.010275952335 0.010461016261 0.01065014178 0.010843403475 0.011041060237 0.011243391688 
0.011450252548 0.011661818841 0.011878284687 0.012099584334 0.012325871156 0.012557200803 0.012793614932 0.013035112393 0.013281745429 
0.013533505161 0.013790417251 0.01405251679 0.014319801052 0.014592474581 0.014870342597 0.015153597175 0.015442342751 0.015736705796 
0.016036732558 0.016342507798 0.016654142276 0.016971630293 0.017295026616 0.017624189953 0.017959310992 0.018300251424 0.018646901224 
0.01899920198 0.019357226635 0.019720515664 0.020089213629 0.02046324112 0.020842438097 0.021226678561 0.02161577692 0.022010129087 
0.022409024385 0.022812041894 0.02321935507 0.023630774368 0.024045514862 0.024463414978 0.02488397338 0.025306821736 0.010120724904 
0.010300864936 0.010484919969 0.010673035069 0.010865259951 0.011061852725 0.011262959326 0.011468581608 0.011678795719 0.011893683908 
0.012113426996 0.012337865942 0.012567143603 0.012801239328 0.013040193924 0.013283990974 0.01353265432 0.013786182589 0.014044646981 
0.014308030204 0.01457656324 0.014850044079 0.015128699889 0.015412624181 0.01570192895 0.015996643999 0.016296879165 0.016602619218 
0.016913962466 0.017230780273 0.017553094837 0.017880829235 0.018213733695 0.018552053157 0.018895577036 0.019244142111 0.019597612747 
0.019955971052 0.020319106691 0.020686915814 0.021059340078 0.021436231723 0.021817239054 0.022202845584 0.022591990881 0.022984694297 
0.023380566656 0.023779364499 0.024180542512 0.024583820195 0.009961169063 0.01013640377 0.010315469302 0.01049838703 0.010685219933 
0.010876280888 0.011071558667 0.011271310971 0.011475390241 0.011683942942 0.011897016628 0.012114643944 0.012336876859 0.012563757411 
0.012795129386 0.013031089433 0.013271639251 0.013516774779 0.013766523376 0.01402096515 0.01428022457 0.014544162201 0.014812957039 
0.01508671707 0.015365538872 0.015649480381 0.015938585993 0.016232928046 0.016532462696 0.016837220785 0.017147100145 0.017462014297 
0.017781925176 0.018106695378 0.018436099087 0.018770360125 0.019109080946 0.01945243322 0.01980011952 0.020152094656 0.020508267084 
0.020868585863 0.021232886547 0.021600774207 0.021972701066 0.022347596279 0.02272559906 0.023106121612 0.023488878334 0.023873501017 
0.0097980630963 0.0099684345762 0.010142461302 0.010320269985 0.010501864263 0.010687328456 0.010876937309 0.011070681044 0.01126869328 
0.011471055371 0.011677616761 0.011888523037 0.012103793848 0.012323386466 0.012547298366 0.01277563574 0.013008206119 0.013245090465 
0.013486351752 0.013731988589 0.013982074461 0.014236779407 0.014495963201 0.014759803589 0.015028415299 0.015301838411 0.015580139158 
0.015863387329 0.016151502617 0.016444514537 0.016742324723 0.017044852729 0.017351995399 0.017663665947 0.017979739822 0.018300190979 
0.018624591656 0.018953256182 0.01928611061 0.019622825407 0.019963410568 0.020307794174 0.020655809276 0.021007343495 0.021362187346 
0.021719819909 0.022080631087 0.022443748152 0.022808805448 0.023175525339 0.0096321277067 0.0097977112121 0.0099669091933 0.010139638721 
0.010315968298 0.010496098395 0.010679993124 0.010867936182 0.01105993811 0.011256010522 0.011456272881 0.011660492001 0.011868877416 
0.01208138779 0.0122979928 0.012518655147 0.01274340244 0.012972212289 0.013205199834 0.013442258586 0.013683518625 0.013929114869 
0.014178899882 0.014433093886 0.014691761623 0.014954981541 0.015222779446 0.015495204654 0.015772258994 0.016053877702 0.0163399787 
0.016630488746 0.016925309761 0.017224281711 0.017527357784 0.017834388448 0.018145359528 0.01846000618 0.018778357115 0.019100210351 
0.019425890129 0.019754961897 0.020087390174 0.020423040504 0.020761709059 0.02110315611 0.02144712975 0.02179351708 0.022141523441 
0.022491101971 0.0094647080371 0.0096255904917 0.0097897709201 0.0099574066038 0.010128735692 0.010303519624 0.01048188861 0.010664110142 
0.010850168545 0.011040136443 0.011233993399 0.011431833631 0.0116334655 0.011838954241 0.012048337786 0.012261612807 0.012478690688 
0.012699642904 0.012924412721 0.013153084846 0.013385784942 0.013622397806 0.013863192607 0.014107977515 0.014357008662 0.014610313575 
0.014867924795 0.015129880579 0.015396157228 0.015666750484 0.015941520175 0.016220406245 0.016503290426 0.016790036409 0.017080555359 
0.017374701891 0.017672486302 0.017973660004 0.018278236346 0.018586147866 0.01889733455 0.01921150376 0.019529057281 0.019849486804 
0.020172679947 0.020498430788 0.020826468061 0.02115652894 0.021488512165 0.021821834986 0.0092967946441 0.0094530326569 0.0096124431222 
0.0097751494566 0.0099412100501 0.010110756109 0.010283840703 0.01046048314 0.010640711268 0.010824684025 0.011012340824 0.011203657488 
0.011398671409 0.011597480803 0.011799816958 0.012005765354 0.012215359301 0.012428644603 0.012645502912 0.0128660362 0.013090280237 
0.013318323423 0.013550277394 0.013786048842 0.014025706153 0.014269422965 0.014517167446 0.014768996064 0.015024867103 0.01528474207 
0.015548568849 0.015816242254 0.016087598091 0.016362531187 0.016640957234 0.016922743272 0.017207766057 0.01749604739 0.017787377436 
0.018081777163 0.018379137269 0.018679445425 0.018982587665 0.019288516229 0.01959667572 0.019907397447 0.02022023232 0.02053490274 
0.020851122217 0.021168747332 0.0091293568308 0.0092811657474 0.0094359219677 0.0095938035803 0.0097548912467 0.0099192861549 0.010087006312 
0.010258146538 0.01043265602 0.010610719858 0.01079242222 0.010977512812 0.011166073691 0.011358074935 0.011553538386 0.011752563938 
0.011954890543 0.012160616204 0.012369775008 0.01258247317 0.012798612842 0.013018298728 0.013241598271 0.013468658617 0.013699323226 
0.013933750643 0.014171996393 0.014414066411 0.014659898339 0.014909471553 0.01516272367 0.015419536671 0.015679811436 0.015943376101 
0.016210170533 0.016480061214 0.016752925369 0.017028788038 0.017307405823 0.017588842439 0.017873058528 0.018159873176 0.018449328925 
0.01874124662 0.019035498698 0.01933190752 0.01963029176 0.019929995764 0.020231360251 0.020533850057 0.0089635977535 0.009110919183 
0.0092612250371 0.00941441791 0.0095706489408 0.0097300152189 0.0098925811933 0.01005835122 0.010227300943 0.010399640601 0.010575376566 
0.0107543673 0.010936730801 0.011122237363 0.011311011341 0.011503041324 0.011698432132 0.011896930196 0.012098668958 0.01230363185 
0.0125119251 0.012723640612 0.012938682583 0.01315728588 0.013379262949 0.013604764669 0.013833836654 0.014066430432 0.014302610356 
0.01454227655 0.014785369182 0.015031758508 0.01528134387 0.015533980575 0.015789639466 0.016048114302 0.016309346864 0.01657325016 
0.016839846943 0.017108932369 0.017380501211 0.017654568787 0.017930934499 0.018209591253 0.018490334299 0.018773079009 0.019057538838 
0.019343495089 0.019630794497 0.019919019387 0.0088003552969 0.0089433746197 0.0090891854598 0.0092379119487 0.0093894399202 0.0095439261519 
0.0097014342594 0.0098620138697 0.010025688864 0.010192360428 0.010362266665 0.010535348041 0.010711562792 0.010890797522 0.011073105403 
0.011258574433 0.011446993726 0.011638486704 0.011833168812 0.012030786361 0.012231536047 0.012435428328 0.012642510225 0.012852932648 
0.013066676442 0.013283603015 0.013503862753 0.013727452189 0.013954314332 0.014184418617 0.014417715521 0.01465411136 0.014893482594 
0.015135676835 0.015380601964 0.015628177251 0.015878310111 0.01613087772 0.016385912641 0.016643218454 0.016902817354 0.01716464888 
0.017428678755 0.01769467489 0.017962589952 0.018232312285 0.018503625851 0.018776271302 0.01905003603 0.019324664226 0.0086403245956 
0.0087792023412 0.0089207306907 0.0090649356915 0.0092119912741 0.0093617631825 0.0095143807502 0.0096698923299 0.0098283413325 0.0099897459517 
0.010153984961 0.010321330391 0.010491545843 0.010664741126 0.010840846804 0.011019796979 0.011201661079 0.011386405012 0.011574047137 
0.011764683457 0.011958266905 0.012154727916 0.012354191519 0.012556729155 0.012762414032 0.012971208651 0.013183004332 0.013397922684 
0.013615898498 0.01383689415 0.014060763579 0.014287602954 0.014517163952 0.01474935944 0.01498406208 0.01522123714 0.015460745201 
0.015702506352 0.015946458914 0.016192672135 0.016440878935 0.016691139424 0.016943382398 0.017197452473 0.017453234569 0.017710576082 
0.017969349235 0.01822937472 0.018490374076 0.018752128144 0.0084840987013 0.0086189591602 0.008756324031 0.0088962639904 0.0090388003493 
0.0091840953132 0.0093319963384 0.0094826217064 0.0096360313688 0.0097922149382 0.0099510755271 0.010112818123 0.010277396229 0.010444724135 
0.010614759941 0.010787548853 0.010963088235 0.011141341881 0.011322341378 0.011506110888 0.011692622401 0.011881961891 0.012074318353 
0.012269332989 0.012467244556 0.01266814921 0.012871820946 0.013078473838 0.013288027768 0.01350028402 0.013715261482 0.013932928674 
0.014153084696 0.014375738608 0.014600697997 0.014827942119 0.015057365973 0.015288855487 0.01552237173 0.015757932818 0.015995339705 
0.016234601159 0.016475668143 0.016718419247 0.016962728606 0.017208388758 0.01745537152 0.017703344716 0.017952279345 0.018201847741 
0.008332075133 0.0084630571625 0.0085964178195 0.0087322069582 0.0088704497027 0.0090112490296 0.0091546802178 0.0093005993244 0.0094491167424 
0.0096002566934 0.0097540521814 0.0099103773901 0.010069404738 0.010231100676 0.010395401378 0.010562242922 0.010731669043 0.010903712743 
0.011078364983 0.011255603422 0.011435450162 0.011617961895 0.011803142879 0.011990996036 0.012181666332 0.012374941229 0.012571033441 
0.012769702853 0.012971046182 0.013174952877 0.013381401529 0.013590291175 0.013801713031 0.014015289402 0.014230980519 0.014448723662 
0.014668532487 0.014890297409 0.015113898423 0.015339303553 0.015566537691 0.015795395401 0.016025851266 0.016257841908 0.01649128082 
0.016725957507 0.016961733035 0.017198420045 0.017435871195 0.017673935773 0.0081845400138 0.008311765472 0.0084412440652 0.0085730401831 
0.0087071537459 0.0088436634579 0.0089826301627 0.0091240858169 0.0092679228526 0.0094142248089 0.0095630085333 0.0097143046837 0.0098679740452 
0.010024255236 0.010182945416 0.010344147324 0.010507757595 0.010673816114 0.010842357864 0.011013354751 0.011186836595 0.011362806875 
0.011541284878 0.011722283484 0.011905798657 0.012091845431 0.012280664933 0.012471743267 0.012665281854 0.01286126183 0.013059625233 
0.013260204257 0.013463007535 0.013667901129 0.013874801137 0.014083653572 0.014294464439 0.014506884146 0.014721093517 0.014936949047 
0.015154490773 0.015373492786 0.01559396158 0.015815805697 0.016038918197 0.016263165386 0.016488386848 0.016714445778 0.016941131481 
0.017168242385 0.0080418002738 0.0081653912591 0.0082909588943 0.0084188928938 0.0085490236133 0.0086814292118 0.0088161116487 0.0089531087606 
0.0090925517453 0.0092342199184 0.0093782225363 0.0095245590059 0.0096732759164 0.0098242224815 0.0099776511192 0.010133405729 0.010291438891 
0.010451788688 0.010614470123 0.010779494503 0.010946898954 0.011116595502 0.011288672649 0.011463119801 0.011639935351 0.011819111857 
0.012000644038 0.012184574778 0.012370813907 0.012559186951 0.012749744754 0.012942434043 0.013137191067 0.013333872927 0.013532441684 
0.013732759461 0.0139348053 0.014138531891 0.014343823282 0.014550638564 0.014758846507 0.014968609473 0.01517962788 0.015391865574 
0.015605401522 0.0158198119 0.016035107458 0.016251085325 0.01646765017 0.016684580986 0.0079035761232 0.0080236427667 0.0081457764742 
0.0082699747772 0.0083961303388 0.0085245614676 0.008655161946 0.0087879463992 0.008922939096 0.0090602549773 0.0091996873788 0.0093412902507 
0.0094851623936 0.0096312243153 0.0097794200407 0.009929962971 0.010082721072 0.010237624674 0.010394723599 0.010554030437 0.010715565249 
0.010879335808 0.01104527867 0.011213462243 0.011383858214 0.011556465178 0.011731260203 0.011908226497 0.01208737949 0.01226853228 
0.01245171499 0.012636977647 0.012823998279 0.013012919171 0.013203532013 0.013395782548 0.013589640681 0.013785035834 0.013981891842 
0.014180147328 0.014379787048 0.014580668752 0.014782831616 0.014986021013 0.015190153231 0.015395262052 0.015601161283 0.015807673301 
0.01601464465 0.016221968907 0.0077700162635 0.0078866958175 0.0080053356777 0.0081259440151 0.0082485575739 0.0083730330611 0.0084997149485 
0.0086284614217 0.0087592998886 0.0088922210528 0.0090273503737 0.0091644706754 0.0093036798089 0.00944498863 0.0095884019973 0.0097338796159 
0.0098814810893 0.010031224843 0.010182996424 0.01033684985 0.010492790289 0.010650823367 0.010810942461 0.010973159243 0.011137433126 
0.011303757875 0.011472149464 0.01164253525 0.011814986123 0.011989263352 0.012165438011 0.012343429185 0.012523172252 0.01270459206 
0.012887773461 0.013072378422 0.013258509415 0.013446031562 0.013634898278 0.013825058918 0.014016481763 0.014209055043 0.01440277838 
0.014597401498 0.014792962067 0.014989304658 0.015186342296 0.015383919994 0.015581878883 0.015780152948 0.0076410414716 0.007754457576 
0.0078697328316 0.0079868921056 0.0081059404748 0.0082269018364 0.0083498143398 0.0084745428476 0.0086013767913 0.008730220744 0.0088610295723 
0.0089938270672 0.0091287101357 0.0092654424996 0.0094042077995 0.0095449627078 0.0096876720018 0.0098323739459 0.0099791062482 0.010127745825 
0.010278363674 0.01043093494 0.010585473015 0.010741948151 0.010900375279 0.011060761899 0.01122302653 0.011387170068 0.011553138444 
0.011720976871 0.011890483504 0.012061673133 0.012234493555 0.01240886939 0.012584777061 0.012762104533 0.012940835715 0.013120990278 
0.013302348121 0.013484847959 0.013668479951 0.013853167249 0.014038866967 0.014225518289 0.014412926707 0.014601022126 0.014789728044 
0.014978898427 0.01516841327 0.015358041207 0.0075166047295 0.0076268757499 0.0077389131758 0.0078527521753 0.0079683938374 0.0080858341215 
0.0082051005068 0.0083262539363 0.0084492681745 0.0085740073471 0.0087007851366 0.008829444358 0.0089599836405 0.0090924921097 0.0092267996166 
0.0093629976852 0.0095010393727 0.0096409647031 0.0097827850608 0.0099265158323 0.010072032415 0.010219416321 0.010368617059 0.010519660999 
0.010672499092 0.010827148333 0.01098358182 0.011141794454 0.011301677587 0.011463206988 0.011626437587 0.011791189801 0.011957438941 
0.012125143738 0.012294240094 0.012464709551 0.012636434291 0.012809419572 0.012983559108 0.013158788381 0.013335182167 0.013512475433 
0.013690629376 0.013869635277 0.014049411103 0.014229724311 0.014410570862 0.014591815814 0.014773341279 0.014955020909 0.0073965963223 
0.0075038352764 0.0076127564616 0.0077233949903 0.0078357443027 0.0079498120205 0.0080656209321 0.0081831732827 0.0083025240472 0.0084236470426 
0.0085465665958 0.0086711371385 0.0087976191729 0.008925911958 0.009056032225 0.0091878658828 0.0093214911596 0.0094569246889 0.0095939956692 
0.0097329056936 0.0098736318346 0.010016030361 0.010160158839 0.01030600358 0.010453535321 0.010602727371 0.010753609347 0.010906110308 
0.011060184075 0.011215806141 0.011373058863 0.011531652985 0.011691680507 0.011853040544 0.012015702249 0.012179649392 0.012344757061 
0.012511035672 0.012678393961 0.012846755476 0.013016088674 0.013186305512 0.013357343023 0.013529115836 0.01370168544 0.013874781096 
0.014048220573 0.014221990536 0.014395989169 0.014570105425 0.0072808950453 0.0073852339503 0.0074911585151 0.0075987051168 0.0077078960065 
0.0078187241064 0.0079312098038 0.0080453525065 0.0081611810419 0.0082786945419 0.0083979188341 0.0085188238086 0.0086414339604 0.0087656276239 
0.0088916187981 0.0090192562389 0.0091487091208 0.0092797941809 0.0094125231922 0.0095468085798 0.0096828914045 0.0098205323253 0.0099597995492 
0.010100675947 0.010243141801 0.010387150777 0.010532721836 0.010679838286 0.010828410998 0.010978414812 0.011129820927 0.011282652827 
0.011436777846 0.011592146351 0.01174871692 0.011906445382 0.012065297776 0.012225218406 0.012386151546 0.012548023258 0.012710776279 
0.012874346608 0.013038666808 0.013203639886 0.01336920702 0.013535335161 0.013701785503 0.013868524183 0.01403551114 0.01420250287 
0.0071694308489 0.0072709380633 0.0073739831996 0.0074785765745 0.007584733954 0.007692448142 0.0078017354629 0.007912596491 0.00802505757 
0.0081391372697 0.0082548276969 0.0083721238533 0.0084910028658 0.0086115289148 0.0087336423027 0.0088572298446 0.0089824875067 0.0091094613845 
0.0092379586155 0.0093680061061 0.0094995115233 0.0096326948686 0.0097673257995 0.0099034689997 0.010041088868 0.010180184381 0.010320682643 
0.010462640941 0.010605975406 0.010750630125 0.010896595263 0.011043832479 0.011192343969 0.011341996658 0.0114927965 0.011644650483 
0.011797618012 0.01195150397 0.012106339779 0.01226207591 0.012418618097 0.012575889961 0.012733836127 0.012892392127 0.013051474599 
0.013210978019 0.013370909151 0.013531011942 0.013691267136 0.013851575109 0.0070620845026 0.0071608988571 0.0072611738682 0.0073629128054 
0.0074661449098 0.0075708854841 0.0076771059311 0.0077848319753 0.0078940713924 0.008004833887 0.0081171366255 0.0082309771337 0.0083463400533 
0.0084632261298 0.0085816152428 0.0087015319814 0.0088229568953 0.0089457242473 0.0090701246121 0.0091961141838 0.0093234714696 0.0094521959185 
0.0095824953655 0.0097141043879 0.0098471185725 0.0099815085576 0.01011723356 0.010254259933 0.010392593079 0.010532170535 0.010672964263 
0.010814945015 0.010958059506 0.011102326924 0.0112476049 0.011393924051 0.011541207666 0.011689409761 0.01183848375 0.011988389782 
0.012139035704 0.012290397382 0.012442325964 0.012594809254 0.012747772789 0.012901115971 0.013054745746 0.013208671782 0.013362621272 
0.0135166163 0.00695877636 0.0070549990406 0.0071526160971 0.0072516397479 0.0073520648866 0.0074539213512 0.0075572219038 0.0076619309387 
0.0077680841144 0.0078756953714 0.0079847526448 0.0080952768286 0.0082072468463 0.0083206677727 0.0084355232663 0.0085518286787 0.0086695514181 
0.0087886425673 0.0089091483596 0.0090309617215 0.0091543738038 0.0092790814024 0.0094049758851 0.0095323747786 0.0096609814108 0.0097908812588 
0.0099220270644 0.010054406412 0.010187989417 0.010322718651 0.010458588912 0.010595563874 0.010733613162 0.010872689549 0.011012807108 
0.011153819636 0.01129575514 0.011438545785 0.011582177438 0.011726553262 0.011871628347 0.012017318532 0.012163578849 0.012310334434 
0.012457502534 0.012605023617 0.012752786156 0.012900815529 0.013048849331 0.013196861475 0.0068594309239 0.0069531657012 0.0070482356906 
0.0071446399193 0.0072423928949 0.0073415004983 0.0074419771765 0.0075438067769 0.007647000465 0.0077515799765 0.0078575350005 0.007964893756 
0.0080736260106 0.008183733869 0.0082952110698 0.0084080454627 0.0085222247973 0.0086377414805 0.0087545269067 0.0088726782086 0.0089921088099 
0.0091128079724 0.0092348403971 0.0093579907091 0.0094824420919 0.0096080673377 0.0097348543334 0.0098627908134 0.0099918566968 0.010121976066 
0.010253172584 0.010385401247 0.010518636721 0.010652819395 0.010787975444 0.010923990038 0.0110608502 0.011198524256 0.011336926166 
0.011476098806 0.011615893372 0.011756278289 0.011897156955 0.012038499654 0.012180232611 0.012322239132 0.012464487905 0.012606882526 
0.012749404123 0.012891801702 0.006763973762 0.0068553232773 0.0069479457837 0.0070418442032 0.0071370243733 0.0072334967701 0.0073312601042 
0.007430341509 0.0075307142279 0.0076324030557 0.0077354169394 0.0078397122184 0.0079453480071 0.0080522912293 0.0081605445401 0.0082700724318 
0.0083808653517 0.0084929374883 0.0086062502794 0.0087207329363 0.0088364749743 0.0089534109847 0.0090716184337 0.0091909148052 0.0093113285413 
0.009432853327 0.0095554793878 0.0096791725475 0.0098039224096 0.0099297018352 0.010056441529 0.010184158979 0.010312800017 0.010442349993 
0.010572764873 0.010704060677 0.010836110593 0.010968919787 0.01110241164 0.011236600544 0.011371399082 0.011506741596 0.011642584437 
0.011778805714 0.011915383982 0.012052224697 0.012189267868 0.012326409821 0.012463580983 0.012600794912 0.0066723334242 0.0067613928236 
0.0068516673945 0.0069431607803 0.0070358750582 0.0071298212536 0.0072249936745 0.0073214313791 0.0074191056975 0.0075180301933 0.0076181967845 
0.007719634413 0.0078223081723 0.0079262028077 0.0080313668553 0.0081377504033 0.0082453238737 0.0083540951544 0.0084640383758 0.0085751340387 
0.0086873090404 0.0088006563027 0.0089151066968 0.0090307327989 0.0091473264714 0.0092650364429 0.0093836054844 0.0095032899265 0.0096239312923 
0.0097455474161 0.0098680682747 0.0099914800546 0.010115789008 0.010240932794 0.010366877744 0.010493637309 0.0106211678 0.010749378989 
0.010878237369 0.011007722693 0.011137795106 0.011268360727 0.011399383232 0.011530766403 0.011662494822 0.011794478528 0.011926592355 
0.012058807703 0.012191017361 0.012323170766 0.0065844240072 0.0066712814388 0.0067593060504 0.0068484929282 0.0069388496478 0.0070303735968 
0.007123066865 0.0072169505342 0.007312043979 0.007408315634 0.0075057782399 0.007604452182 0.0077043089826 0.0078053411046 0.0079075656114 
0.0080109017442 0.008115424774 0.0082210354046 0.0083277733444 0.0084355810693 0.0085444564792 0.008654314794 0.0087652707264 0.0088772334476 
0.0089902738711 0.0091041952268 0.009219077688 0.009334967613 0.0094516123588 0.0095692339326 0.0096877369778 0.0098070829362 0.0099272713226 
0.010048235923 0.010169971738 0.010292451819 0.010415626307 0.010539496767 0.010663956094 0.010788992586 0.010914569769 0.011040642688 
0.011167114401 0.011293951155 0.011421086064 0.011548431527 0.011675934029 0.011803490599 0.011931050992 0.01205854761 0.0065001227477 
0.0065848770328 0.0066707452458 0.006757726561 0.0068458148796 0.0069350206812 0.0070253416686 0.0071167891876 0.0072093889529 0.0073031401534 
0.0073980203758 0.0074940412179 0.007591207692 0.0076894889856 0.0077888931296 0.0078894151995 0.0079909980749 0.0080936306709 0.0081972395432 
0.0083019261308 0.0084075913583 0.0085142322591 0.0086218040472 0.0087303569544 0.0088398230379 0.008950251809 0.0090615619113 0.0091737013879 
0.0092867016849 0.009400699592 0.0095152979031 0.0096306995067 0.0097469368734 0.0098639244246 0.0099816476139 0.010100056263 0.010219138952 
0.010338847423 0.010459185629 0.010580001913 0.010701344659 0.010823141173 0.010945330959 0.011067849126 0.011190659157 0.011313660352 
0.01143679398 0.011559985912 0.011683138931 0.011806205805 0.0064192879059 0.0065020267465 0.0065858297916 0.0066706920356 0.0067566097578 
0.0068435940304 0.0069316468884 0.007020771266 0.0071109861197 0.0072023100172 0.0072947162426 0.0073882173403 0.0074828021258 0.0075784728048 
0.0076751881531 0.0077729662189 0.0078717555392 0.0079715237924 0.0080722701418 0.0081739739512 0.0082765307493 0.0083800651148 0.0084844567905 
0.0085897169086 0.0086958713221 0.0088028747702 0.00891075418 0.0090194503422 0.0091288927371 0.0092391334364 0.0093502522276 0.0094620270246 
0.0095745116687 0.0096876820528 0.0098015789724 0.0099161292738 0.010031320955 0.010147096173 0.010263427597 0.010380297799 0.010497600246 
0.010615361231 0.010733487977 0.010851937116 0.010970682364 0.011089593166 0.011208625628 0.011327675909 0.011446696823 0.011565592714 
0.0063417241897 0.0064225412569 0.006504357551 0.0065871902255 0.0066710323846 0.0067558819244 0.0068417608773 0.0069286580436 0.0070165835608 
0.0071055761558 0.0071956319961 0.0072867243855 0.0073788529397 0.0074720079303 0.0075661850284 0.0076613362878 0.0077574578129 0.0078545117075 
0.0079524670572 0.008051313086 0.0081510309868 0.008251575627 0.0083529552682 0.0084550609279 0.0085579986725 0.0086617733294 0.0087663255022 
0.0088716988515 0.0089778083865 0.0090846077222 0.0091921628132 0.0093005298913 0.0094094802652 0.0095191160397 0.0096293620272 0.0097402443114 
0.0098516876589 0.0099637329104 0.010076307627 0.010189387958 0.010302908146 0.010416848131 0.010531140566 0.010645717902 0.01076056882 
0.010875592483 0.010990745676 0.011105913096 0.011221024595 0.011336010765 0.0062671846197 0.0063461430132 0.0064260665253 0.0065069511434 
0.0065887964608 0.0066716096376 0.0067553987178 0.0068401651201 0.0069259187563 0.0070126917638 0.0071004686998 0.0071892686988 0.0072790491898 
0.0073698091474 0.0074615404134 0.0075542114291 0.0076477665872 0.00774221752 0.0078375086052 0.0079336311319 0.0080305578015 0.0081282616241 
0.0082267316159 0.0083259585005 0.0084259108436 0.0085265685019 0.0086279863559 0.0087300521683 0.0088329462777 0.008936494805 0.0090407649677 
0.0091456825345 0.0092512684625 0.0093575825769 0.0094644018138 0.0095718155675 0.0096798351679 0.0097882438656 0.0098972555332 0.010006714742 
0.010116635863 0.010226936586 0.010337603547 0.01044854181 0.010559729036 0.010671095068 0.010782566612 0.010894066513 0.011005484532 
0.011116763427 0.0061953477529 0.0062725289389 0.0063506275704 0.0064296389622 0.0065095713064 0.0065904267699 0.0066722158249 0.0067549400634 
0.0068386073215 0.0069232497985 0.007008867205 0.007095456349 0.0071829884097 0.0072714642646 0.0073608493168 0.0074511227575 0.0075422667763 
0.0076342099059 0.0077269612531 0.0078204620336 0.0079147245482 0.0080097077449 0.0081053976089 0.0082017890004 0.0082988679962 0.0083966137337 
0.0084950531139 0.0085941321884 0.0086939122974 0.0087943946137 0.008895492958 0.0089971160334 0.0090995175327 0.0092024786494 0.0093061161989 
0.0094102147634 0.009514837207 0.0096199938377 0.0097256096742 0.0098316434249 0.0099381304583 0.010044964272 0.010152174993 0.010259669336 