# vtk DataFile Version 5.1
vtk output
ASCII
DATASET STRUCTURED_POINTS
DIMENSIONS 50 50 50
SPACING 0.002 0.002 0.002
ORIGIN 0.2174 -0.052672 0.02732
POINT_DATA 125000
FIELD FieldData 1
potential 1 125000 double
0.0043219082908 0.0042623088943 0.0042038462776 0.0041464709242 0.004090000514 0.0040344235147 0.0039802160342 0.0039270276707 0.0038748419677 
0.0038241581261 0.0037739460222 0.0037247045327 0.0036764138501 0.0036290516765 0.0035825987489 0.0035370193997 0.0034922771895 0.0034483422811 
0.0034051683582 0.0033626992294 0.0033209819275 0.0032799353894 0.0032395700278 0.0031998585261 0.0031607872317 0.0031223580571 0.0030844699409 
0.0030473123012 0.00301078605 0.0029748941858 0.0029396314656 0.0029049933529 0.0028709762206 0.0028375691981 0.0028047658301 0.002772638503 
0.0027409192501 0.0027098415014 0.0026793215759 0.0026493077805 0.0026198693236 0.0025909650191 0.0025625804771 0.0025347022928 0.0025073429005 
0.0024804728284 0.0024540835718 0.0024281567332 0.0024026702985 0.0023776140798 0.00430208723 0.0042430029671 0.0041850585272 0.0041279884941 
0.0040718370026 0.0040170580328 0.0039633065794 0.003910568382 0.0038593337977 0.0038085676621 0.0037587741991 0.0037099433663 0.0036620456729 
0.0036150773388 0.0035689966298 0.0035237825079 0.0034793930603 0.0034357977678 0.0033929566158 0.0033508051383 0.003309397671 0.0032686525391 
0.0032285782588 0.0031891502483 0.003150354349 0.0031120931745 0.0030745651499 0.0030376641927 0.0030013892525 0.0029657420565 0.0029307193827 
0.002896314117 0.0028625236496 0.00282933436 0.0027968419629 0.0027648321435 0.0027333164597 0.0027024334254 0.0026720961099 0.0026422643777 
0.002613002634 0.0025842614007 0.0025560449959 0.0025283372176 0.0025011318383 0.0024744173139 0.0024481800896 0.0024224006634 0.0023970654044 
0.0023721514385 0.0042805760969 0.0042218330925 0.0041643917088 0.0041076870094 0.0040523733744 0.0039980804346 0.0039448085818 0.0038925409637 
0.003841766507 0.0037914511141 0.0037420980888 0.0036936891904 0.0036462161795 0.0035996492225 0.0035539613927 0.0035091235104 0.0034651027318 
0.0034218613703 0.0033793629467 0.0033375490714 0.0032964508521 0.0032560325048 0.0032162672624 0.0031771360017 0.0031385271568 0.0031006554783 
0.0030634076723 0.0030267810175 0.0029907727007 0.0029553902858 0.0029206257219 0.0028864689427 0.0028529232753 0.0028199779106 0.0027877090883 
0.00275585302 0.0027246242631 0.0026939488985 0.0026637755459 0.0026341625018 0.0026050843344 0.0025765335957 0.0025484904272 0.0025209499583 
0.0024939083219 0.0024673528702 0.002441271566 0.0024156429869 0.0023904538253 0.0023656861753 0.0042567482566 0.004198766447 0.0041415269877 
0.0040857013959 0.0040309128084 0.00397713331 0.0039243639146 0.0038725908626 0.003822305135 0.0037724621738 0.0037235730898 0.0036756194975 
0.0036285874263 0.0035824431297 0.0035371698908 0.0034927315074 0.0034490949488 0.0034062293785 0.0033640938375 0.003322633246 0.0032818758132 
0.0032417916907 0.0032023504774 0.0031634196592 0.003125236477 0.0030876698517 0.0030507217425 0.0030143908071 0.0029786742765 0.002943570769 
0.0029090833878 0.0028752045175 0.0028419267947 0.0028093281188 0.0027772125953 0.0027455959917 0.0027146004494 0.002684135426 0.0026541765859 
0.0026247729613 0.0025958925847 0.0025675307657 0.0025396700568 0.0025123045277 0.0024854335384 0.0024590443404 0.0024331256626 0.0024076569541 
0.0023826246928 0.0023580076819 0.0042306924312 0.0041729612761 0.0041166560372 0.0040613922036 0.0040071582984 0.0039539329644 0.0039016926965 
0.0038509662634 0.0038006759657 0.0037513335801 0.0037029378394 0.0036554632692 0.0036088957498 0.0035632065724 0.0035183694054 0.0034743547271 
0.0034311282177 0.0033886589906 0.0033469099928 0.0033058087046 0.0032654295471 0.0032256992206 0.0031866036847 0.0031480106671 0.0031101597636 
0.003072921474 0.0030362960169 0.0030002772688 0.0029648727811 0.0029300804737 0.0028958928557 0.0028623047858 0.002829405561 0.0027969896233 
0.0027650793684 0.0027337752013 0.0027030294442 0.0026728085403 0.0026430794797 0.0026138936618 0.0025852281089 0.002557065286 0.0025293989398 
0.0025022250318 0.0024755351076 0.0024493216014 0.0024235718163 0.0023982739292 0.0023734030796 0.0023489471042 0.0042016649647 0.004144919374 
0.0040892295436 0.0040345695316 0.0039809246457 0.0039282801253 0.003876609558 0.0038264378395 0.0037766904498 0.003727886026 0.0036800097546 
0.003633046612 0.0035869745718 0.0035417668361 0.0034973911414 0.0034538268814 0.0034110383267 0.003368989204 0.0033276501281 0.003286946566 
0.0032469584045 0.0032076061921 0.0031687497765 0.0031306468838 0.0030931521387 0.0030562567712 0.0030199771501 0.0029843046968 0.0029492350007 
0.0029147718024 0.0028809060359 0.0028476367156 0.0028150416805 0.0027828595811 0.0027512955724 0.0027202808745 0.0026897967938 0.0026598337889 
0.0026303475255 0.0026013985405 0.00257295771 0.0025450111875 0.0025175530033 0.0024905821219 0.0024640870248 0.0024380627372 0.0024124966475 
0.0023873776151 0.0023626830632 0.002338398966 0.0041702824694 0.0041142143437 0.004059175775 0.0040051565509 0.0039521366289 0.0039001057517 
0.0038495672744 0.0037994575489 0.0037502907164 0.0037020533108 0.0036547310329 0.0036083098466 0.0035627576906 0.0035180585788 0.0034741799802 
0.0034310906901 0.0033887649498 0.0033471672234 0.0033062133591 0.0032659812404 0.0032264080379 0.0031873221703 0.003148992454 0.003111269385 
0.0030741542992 0.0030376384356 0.0030017269719 0.0029664133666 0.0029317044442 0.0028975925496 0.0028640649674 0.002831228671 0.0027988657183 
0.0027670130287 0.0027357589823 0.0027050410539 0.0026748400205 0.0026451538727 0.0026159293342 0.0025872332579 0.002559033687 0.0025313176018 
0.002504084794 0.0024773283166 0.0024510452375 0.0024252237476 0.002399855838 0.0023749282042 0.002350422062 0.0023263262835 0.0041362469809 
0.0040808828293 0.0040265400217 0.0039732009476 0.0039208479211 0.0038694669831 0.0038195584142 0.0037700757617 0.0037215223675 0.0036738842679 
0.0036271477603 0.0035812921155 0.0035362957333 0.0034921335695 0.003448778963 0.0034061916157 0.0033643549299 0.0033232322445 0.0032827391469 
0.003242953907 0.0032036752737 0.003165148875 0.0031272370493 0.0030899283098 0.0030532167084 0.0030170988896 0.0029815768354 0.0029466482926 
0.0029123118448 0.0028785707965 0.0028455173261 0.002812938596 0.0027808771476 0.0027494151655 0.0027184914357 0.002688086663 0.0026581911781 
0.0026287957098 0.0025998518966 0.0025714265197 0.0025434841256 0.0025160173117 0.0024890239758 0.0024624976655 0.0024364372676 0.0024108355001 
0.0023856776299 0.00236095519 0.0023366536717 0.0023127531331 0.0040997162821 0.0040451033742 0.0039914937806 0.0039388713006 0.0038872189659 
0.0038370537355 0.0037872853516 0.0037384591067 0.0036905495548 0.003643538221 0.0035974145095 0.0035521541639 0.0035077375453 0.0034641383181 
0.0034213289209 0.003379271672 0.0033379486931 0.0032973096376 0.0032573076289 0.0032178468108 0.0031791714712 0.0031411025914 0.003103631191 
0.0030667538171 0.0030304668002 0.0029947678239 0.0029596454347 0.0029251226703 0.0028911888887 0.0028578476269 0.0028251749249 0.0027929717191 
0.002761282144 0.002730175927 0.0026996002408 0.002669528906 0.0026399532184 0.0026108627595 0.0025822197559 0.0025540815953 0.0025264101922 
0.0024992074765 0.0024724669918 0.0024461874716 0.0024203655774 0.0023949959143 0.0023700612596 0.0023455584798 0.002321471435 0.0022977831049 
0.0040609793966 0.0040071604304 0.0039543207087 0.0039024473781 0.0038515289589 0.0038020784231 0.0037530140954 0.0037048723982 0.003657629395 
0.0036112711519 0.0035657817451 0.0035211404876 0.0034773280201 0.0034343156765 0.0033920707317 0.0033505639293 0.0033097667761 0.0032696459402 
0.00323000296 0.0031911862985 0.0031529916 0.0031153911595 0.0030783817144 0.003041946156 0.0030061016942 0.002970838402 0.0029361550948 
0.0029020552322 0.0028685385418 0.0028357001497 0.0028033313537 0.00277148364 0.0027402170126 0.0027094848268 0.0026792643511 0.0026495404503 
0.0026203022492 0.0025915354929 0.0025632007082 0.0025353647059 0.002507980349 0.0024810558698 0.0024545823091 0.0024285633588 0.0024029948739 
0.0023778677142 0.0023531739007 0.0023289021019 0.0023050438635 0.0022815778641 0.0040204075341 0.0039674093157 0.0039153746248 0.0038642842856 
0.0038146666765 0.0037654199997 0.0037170789283 0.0036696465561 0.0036230966214 0.0035774138311 0.003532580025 0.0034885757365 0.0034453816426 
0.003402962432 0.0033613033754 0.0033203650424 0.0032801088808 0.0032405372521 0.003201413429 0.0031631052591 0.0031254065067 0.0030882885695 
0.0030517527616 0.0030157936683 0.00298041045 0.0029456000963 0.0029113621409 0.0028776975269 0.002844711497 0.0028121950046 0.0027802402124 
0.0027487996103 0.0027179270215 0.0026875774903 0.0026577272656 0.002628362367 0.0025994711751 0.0025710014693 0.0025430236164 0.0025155021452 
0.0024884198042 0.002461785802 0.002435594349 0.0024098470016 0.0023845407623 0.0023596703475 0.0023352265221 0.0023111985825 0.0022875752864 
0.002264341463 0.003978431685 0.0039262840124 0.0038750721811 0.0038247879846 0.0037759557338 0.0037274735993 0.0036798819623 0.0036331729132 
0.0035873341912 0.003542339938 0.0034981776646 0.0034548164487 0.0034122549523 0.0033704573591 0.0033293923322 0.0032890179965 0.0032493386696 
0.0032101505398 0.0031717123363 0.0031339260595 0.0030967364096 0.0030601275732 0.0030240841835 0.0029886034198 0.0029536951258 0.002919349916 
0.0028855673992 0.0028523557118 0.0028198050521 0.0027877202212 0.002756158605 0.0027251632229 0.0026946952728 0.0026647330484 0.0026352591655 
0.0026062626212 0.002577724429 0.0025496017543 0.0025219570005 0.0024947552781 0.0024679845914 0.002441653958 0.0024157529597 0.002390289322 
0.002365256622 0.0023406518352 0.0023164666239 0.0022926907651 0.0022693130742 0.0022463191662 0.0039355141215 0.0038842280471 0.0038338580889 
0.0037843955752 0.0037363613 0.0036886617355 0.0036418340367 0.0035958662125 0.0035507376492 0.0035064421947 0.0034629592579 0.0034202666789 
0.0033783447092 0.0033371671667 0.0032967029982 0.0032569118817 0.0032176192144 0.0031791569018 0.0031412696265 0.0031040100432 0.0030673429418 
0.0030312411203 0.0029957002233 0.0029607137244 0.0029262851079 0.0028924149427 0.0028591002285 0.0028264383324 0.0027942378009 0.0027625647299 
0.0027314569358 0.0027008820614 0.0026708158266 0.002641245534 0.002612155767 0.0025835312695 0.0025553542691 0.0025275792715 0.002500277088 
0.0024734011314 0.0024469494565 0.0024209262807 0.0023953276299 0.0023701522196 0.0023454025231 0.0023210704592 0.0022971525322 0.0022736347931 
0.0022505074866 0.0022277585896 0.0038920903975 0.0038416819369 0.003792170396 0.0037440824934 0.0036963143259 0.0036493943284 0.00360333213 
0.0035581197367 0.0035137197906 0.0034701287137 0.0034273285967 0.0033852975386 0.0033440203608 0.0033034524621 0.0032635769264 0.003224206861 
0.0031856728782 0.003147726958 0.0031104232651 0.003073698174 0.0030375520804 0.0030019675441 0.0029669328527 0.0029324448132 0.0028985043201 
0.0028651106618 0.002832364489 0.0028000673787 0.0027683172865 0.0027370866578 0.0027064047917 0.0026762453014 0.0026465848625 0.0026174084168 
0.0025887037221 0.0025604489209 0.0025326340771 0.0025052135496 0.0024782540155 0.0024517103249 0.0024255824278 0.0023998746976 0.0023745793519 
0.0023497027789 0.0023252394026 0.0023011871499 0.0022775364423 0.0022542814888 0.0022314110782 0.0022089084082 0.0038485883563 0.0037990611235 
0.0037503989309 0.0037031457507 0.0036561907338 0.0036100753329 0.0035647857927 0.0035203156 0.0034766412231 0.0034337531922 0.0033916246264 
0.0033502538182 0.0033096154184 0.0032696736198 0.003230211602 0.0031916126694 0.0031536464645 0.0031162569364 0.0030794968514 0.003043306842 
0.003007684874 0.0029726176711 0.0029380925011 0.0029041027201 0.0028706511924 0.0028377427068 0.0028054630891 0.0027736273812 0.002742311569 
0.002711535172 0.0026812811686 0.002651532584 0.0026222732905 0.0025934893753 0.0025651660624 0.0025372803888 0.0025098292662 0.0024827618928 
0.0024561467095 0.0024299386394 0.0024041380394 0.0023787477247 0.0023537608066 0.0023291826372 0.002305008447 0.0022812377273 0.0022578599395 
0.0022348674736 0.0022122529138 0.0021899992444 0.0038053735992 0.0037567267991 0.0037094765505 0.0036625062204 0.0036163611043 0.0035710341559 
0.0035265077353 0.0034827709993 0.0034398163209 0.0033976223077 0.0033561784177 0.003315463799 0.0032754532681 0.0032359162809 0.0031972566823 
0.0031592367804 0.0031218372274 0.0030849988503 0.0030487779899 0.0030131183025 0.0029780203306 0.0029434660185 0.0029094453348 0.0028759560437 
0.0028429962953 0.0028106591591 0.0027787510267 0.0027473740685 0.0027165050581 0.0026861645928 0.0026563272212 0.0026269870157 0.0025981249345 
0.0025697284659 0.0025417762044 0.0025142629605 0.0024871700948 0.0024604573688 0.0024341817496 0.0024083084363 0.0023828331796 0.0023577586593 
0.0023330845998 0.0023088060123 0.0022849219989 0.0022614321789 0.0022383283008 0.0022155999591 0.0021932387252 0.0021712338621 0.0037627772776 
0.0037150001584 0.003668591887 0.0036224440924 0.0035770916141 0.0035325414021 0.0034887703162 0.0034457764524 0.0034035291058 0.0033620229791 
0.0033212404028 0.0032811705328 0.0032415645158 0.0032028469382 0.0031647762013 0.0031273253675 0.0030904847214 0.0030541880482 0.0030185043277 
0.0029833736377 0.0029487882558 0.0029147441265 0.0028812250597 0.0028482294789 0.0028158471146 0.0027838873587 0.0027524406005 0.002721506866 
0.00269108802 0.0026611734896 0.0026317496326 0.0026028094268 0.0025743393672 0.0025463192502 0.0025187393871 0.0024915871371 0.0024648120149 
0.0024384810527 0.0024125459445 0.0023870073708 0.0023618557233 0.0023370982972 0.0023127312821 0.0022887519362 0.0022651571315 0.0022419464821 
0.0022191126319 0.0021966483001 0.0021745390797 0.002152780558 0.0037210300437 0.0036746545743 0.0036285212759 0.0035831848456 0.0035386257442 
0.0034948376057 0.003451806433 0.0034095312183 0.0033679814204 0.0033271484775 0.0032870177888 0.0032473696218 0.0032085829096 0.0031704599052 
0.0031329631491 0.0030960748131 0.0030597809298 0.0030240204256 0.0029888635908 0.0029542497786 0.00292017458 0.0028866319865 0.0028536108472 
0.0028211907012 0.0027891882685 0.0027576929365 0.0027266977992 0.0026962114075 0.0026662235586 0.0026367252847 0.0026077055163 0.0025791579386 
0.0025510677424 0.0025234232792 0.002496206372 0.0024694103298 0.0024429837555 0.0024169911326 0.0023913926622 0.0023661801443 0.0023413492301 
0.0023169036785 0.002292841873 0.0022691579516 0.0022458508325 0.0022229157135 0.0022003516417 0.0021781422535 0.0021562859489 0.0021347689637 
0.0036803315411 0.0036347852617 0.0035894649046 0.0035449134316 0.0035011212946 0.0034580785745 0.0034157715108 0.003374198653 0.0033333285422 
0.0032931520554 0.0032534492394 0.0032146149372 0.0031764413456 0.0031388975845 0.0031019685204 0.0030656297665 0.0030298688844 0.0029946387355 
0.0029600001886 0.0029258927722 0.0028923212761 0.0028592681692 0.0028267267048 0.0027947829882 0.0027632435531 0.0027322026077 0.0027016561262 
0.0026716034821 0.0026420319661 0.0026129391542 0.0025843155075 0.0025561492155 0.0025284338804 0.002501154605 0.0024742941951 0.0024478442251 
0.0024217582846 0.0023961020461 0.0023708302016 0.0023459383715 0.0023214190443 0.0022972820052 0.0022735184173 0.0022501262033 0.0022271008623 
0.0022044406646 0.0021821370588 0.002160184496 0.0021385743234 0.0021172968742 0.003641355015 0.0035960642239 0.0035515298502 0.0035077446575 
0.0034646983623 0.0034223815108 0.0033807808383 0.0033398920427 0.0032996803935 0.003259927872 0.003221063696 0.0031828336577 0.0031452427604 
0.0031082674921 0.0030718893761 0.0030360854142 0.0030008203996 0.0029661437617 0.0029320095284 0.0028984050541 0.0028653176002 0.0028327426825 
0.0028007644599 0.0027691895217 0.0027381040404 0.0027075100294 0.0026773959413 0.0026477604292 0.0026185963201 0.0025898976357 0.0025616619843 
0.0025338724859 0.0025065196773 0.0024795935297 0.0024530799802 0.0024269703023 0.0024012177141 0.0023758856572 0.0023509340378 0.0023263578701 
0.00230214683 0.002278309433 0.0022548378929 0.0022317303557 0.0022089820828 0.0021865875835 0.002164543079 0.0021428420053 0.0021214809998 
0.0021004384165 0.0036030774196 0.0035585679176 0.0035147949303 0.0034717543207 0.0034294322492 0.0033878197085 0.003346898756 0.0033066762981 
0.003266881806 0.0032279840071 0.0031897069163 0.0031520772051 0.0031150572448 0.0030786341799 0.0030427944352 0.0030075178041 0.0029727691351 
0.0029385961925 0.0029049562549 0.0028718380861 0.0028392267772 0.0028072108703 0.0027755968656 0.0027444710512 0.0027138399594 0.0026836689274 
0.0026539712215 0.0026247428967 0.0025959724454 0.0025676608152 0.0025397966455 0.0025123702154 0.0024853742988 0.0024587937335 0.0024326176213 
0.0024068387948 0.002381407884 0.0023563949515 0.0023317554888 0.0023074856412 0.0022835735074 0.0022600282623 0.002236843277 0.002214012842 
0.0021915405172 0.0021694079837 0.0021476172925 0.0021261610446 0.0021050322549 0.0020842205634 0.0035660957186 0.0035223402411 0.0034793083336 
0.0034369868996 0.0033953655536 0.0033544325609 0.0033141733634 0.00327436096 0.0032354237387 0.003197117928 0.0031594501925 0.0031223835219 
0.0030859186726 0.0030500356077 0.0030147196642 0.0029799590554 0.0029457125482 0.0029120350451 0.0028788766756 0.0028462291216 0.0028141745482 
0.0027825197856 0.0027513494296 0.0027206596978 0.0026904605028 0.0026607060635 0.0026314135494 0.0026025771972 0.0025741946153 0.0025462562011 
0.0025187531416 0.0024916801629 0.0024650272312 0.0024387818324 0.0024129367718 0.0023874390863 0.0023623620573 0.0023376577178 0.0023133214743 
0.0022893467669 0.0022657375423 0.0022424778123 0.0022195701979 0.0021970081902 0.0021747900257 0.0021529127476 0.0021313689616 0.0021101516317 
0.0020892551493 0.0020686733746 0.0035304223085 0.0034873962533 0.0034450807015 0.0034034541794 0.00336251093 0.0033222389478 0.0032823927328 
0.0032434325278 0.0032051063398 0.0031673824344 0.0031302851226 0.0030937752114 0.0030578489699 0.0030224885978 0.0029876896296 0.0029534303492 
0.0029196727908 0.002886473318 0.0028537835166 0.0028215951824 0.0027899894866 0.0027587762734 0.0027280387936 0.0026977948373 0.002667987965 
0.0026386333512 0.002609735067 0.0025812835952 0.0025532745572 0.0025256972296 0.002498546493 0.002471816613 0.0024454953238 0.0024195747072 
0.0023940522229 0.0023688664511 0.0023440938906 0.0023196904618 0.0022956490646 0.0022719643963 0.0022486299759 0.0022256468619 0.0022030065592 
0.0021807096629 0.0021587491444 0.0021371185147 0.0021158149998 0.0020948346135 0.0020741668442 0.0020538069713 0.0034960573359 0.0034537388154 
0.0034121133755 0.0033711596553 0.0033308693855 0.0032909860879 0.0032520106633 0.0032136571067 0.0031758957755 0.0031387603115 0.0031022156139 
0.0030662475108 0.0030308444605 0.0029959954069 0.0029616945148 0.0029279241231 0.0028946445384 0.0028619094527 0.0028296745343 0.0027980274345 
0.0027667644158 0.0027359791886 0.0027056892535 0.0026758277438 0.0026464166866 0.0026174560961 0.0025889379561 0.002560858357 0.0025332136442 
0.0025059855817 0.0024791793961 0.0024527799203 0.0024267813871 0.0024011783179 0.0023759555602 0.0023510710842 0.0023265951451 0.0023024813775 
0.0022787270435 0.0022553227017 0.0022322606977 0.0022095438157 0.0021871640212 0.0021651197518 0.0021434076188 0.0021220209482 0.002100954205 
0.0020802029583 0.0020597587649 0.0020396176237 0.0034629981039 0.0034213617194 0.0033803999582 0.0033400952442 0.003300186456 0.0032611730764 
0.0032227939014 0.0031850075312 0.003147829342 0.0031112404269 0.0030752341499 0.0030397889212 0.0030048930444 0.0029705455323 0.0029367300932 
0.0029033994343 0.0028706152881 0.0028383330233 0.0028066343236 0.0027753262347 0.0027444882056 0.0027141255179 0.0026842415887 0.0026547765875 
0.0026257532683 0.0025971679166 0.0025690171372 0.0025412965265 0.0025139962317 0.0024871043226 0.0024606275553 0.0024345502964 0.0024088652313 
0.0023835647931 0.002358642542 0.0023340510724 0.0023098607679 0.0022860304645 0.0022625516706 0.0022394143096 0.0022166168764 0.0021941603918 
0.0021720373763 0.0021502439724 0.0021287733115 0.0021076225461 0.0020867885306 0.0020662579261 0.0020460350025 0.0020261057094 0.0034312216329 
0.0033902428877 0.0033499210143 0.003309987225 0.0032709475198 0.003232529183 0.0031947334156 0.0031575036553 0.0031208753046 0.0030848253918 
0.0030493436657 0.0030144054011 0.0029800057094 0.0029461414005 0.0029127974772 0.0028799268597 0.0028475938347 0.002815844164 0.0027844809453 
0.0027535917473 0.002723165114 0.0026932340968 0.0026637102831 0.0026346292413 0.002605979293 0.0025777588455 0.0025499621086 0.0025225879882 
0.0024956205407 0.0024690612978 0.0024429017575 0.0024171334399 0.0023917519177 0.0023667462335 0.0023421133931 0.0023178064534 0.0022938949738 
0.0022703357621 0.0022471210412 0.0022242467579 0.0022017043308 0.0021794993436 0.0021576225076 0.0021360684605 0.0021148349203 0.0020939137322 
0.0020733040356 0.0020529919352 0.0020329806071 0.0020132622006 0.0034007119551 0.0033603685367 0.0033204005836 0.0032813367937 0.0032428855541 
0.0032050454393 0.0031677948257 0.0031311258902 0.003095028963 0.003059496385 0.0030245146985 0.0029900673247 0.0029561521549 0.0029227553425 
0.0028898651187 0.0028574421133 0.0028255451051 0.0027942240577 0.0027632773798 0.0027327974627 0.0027028091537 0.0026732278419 0.0026440854445 
0.0026153730481 0.0025870851582 0.0025592173849 0.0025317641307 0.002504718626 0.0024780803891 0.0024518379324 0.0024259840228 0.0024005149841 
0.0023754259205 0.0023507087594 0.0023263163009 0.0023023213952 0.0022786782025 0.0022553816946 0.0022324240499 0.0022098024246 0.0021875094748 
0.0021655472383 0.0021439099586 0.0021225882015 0.0021015803711 0.0020808842789 0.0020604879573 0.0020403923202 0.0020205916755 0.0020010752227 
0.0033714426235 0.0033314409208 0.0032923400665 0.0032538578598 0.0032159786364 0.0031786785507 0.0031419859608 0.0031058442208 0.0030702609607 
0.0030352308356 0.0030007352785 0.0029667690923 0.0029333184112 0.0029003757626 0.002867929913 0.0028359427896 0.002804561241 0.0027735590147 
0.0027430209666 0.0027129369794 0.0026833348727 0.0026541294164 0.0026253552124 0.0025969997309 0.0025690615409 0.0025415342255 0.0025144087182 
0.0024876867269 0.0024613638002 0.0024354237639 0.0024098677981 0.0023846893373 0.0023598810851 0.002335439018 0.0023113175615 0.0022875843174 
0.0022642022661 0.0022411591666 0.0022184497906 0.0021960748622 0.0021740228325 0.0021522953039 0.0021308865214 0.0021097907476 0.0020890054004 
0.0020685217099 0.0020483417652 0.0020284549349 0.002008857749 0.0019895433425 0.0033431203355 0.0033039896112 0.0032654668013 0.0032275467081 
0.003190221058 0.003153468235 0.0031172846476 0.00308165453 0.0030465699519 0.0030120200643 0.0029779985797 0.0029444970063 0.0029114981914 
0.0028789941238 0.0028469785382 0.002815507794 0.0027844449688 0.0027538462706 0.0027236981348 0.0026940475688 0.0026647725298 0.0026359310548 
0.0026075096147 0.0025795023725 0.0025518996143 0.0025247009845 0.0024978965225 0.0024714844109 0.0024454589431 0.0024198147786 0.0023945451247 
0.002369646077 0.0023451073135 0.0023209316556 0.0022970692902 0.0022735915763 0.0022504588616 0.002227660743 0.002205194296 0.0021830555496 
0.0021612346875 0.0021397358468 0.0021185491343 0.0020976731323 0.0020771013759 0.002056831141 0.002036857969 0.0020171747405 0.0019977774734 
0.0019786607231 0.0033162903574 0.0032777322987 0.0032397676559 0.0032023954214 0.0031655815637 0.0031293608593 0.0030936817486 0.0030585448134 
0.0030239388353 0.0029898601374 0.0029562977475 0.0029232407466 0.0028906772971 0.0028586021432 0.0028270681251 0.0027959444199 0.0027652827789 
0.0027350720983 0.0027053590082 0.0026760270102 0.0026471142468 0.0026186248944 0.0025905457992 0.0025628708909 0.002535594131 0.0025087087706 
0.002482213725 0.0024560994201 0.0024303646222 0.0024050012376 0.0023800069593 0.002355372533 0.0023310979422 0.0023071766998 0.0022835671574 
0.0022603320751 0.0022374406171 0.0022148809009 0.0021926472913 0.0021707358689 0.0021491399005 0.0021278605093 0.0021068929989 0.002086227664 
0.0020658663645 0.0020458021129 0.0020260278495 0.0020065441236 0.0019873439522 0.0019684178848 0.0032906655485 0.0032526583527 0.0032152379603 
0.0031783716679 0.0031420852278 0.003106364042 0.003071171823 0.0030365070525 0.0030023653307 0.0029687390557 0.0029356161199 0.0029029919657 
0.0028708538373 0.0028392865577 0.0028080628099 0.0027773367287 0.0027470612558 0.0027172918132 0.0026878888144 0.0026589155734 0.0026303509529 
0.002602203364 0.0025744547792 0.0025471001974 0.0025201344833 0.0024935556997 0.0024673555333 0.0024415266636 0.0024160700316 0.0023909747094 
0.0023662440329 0.0023418670908 0.002317845404 0.0022941686284 0.0022707984127 0.0022478056778 0.0022251424089 0.0022028100947 0.0021808004524 
0.0021591102068 0.0021377336266 0.0021166685128 0.0020959055566 0.0020754488339 0.0020552919191 0.002035429872 0.0020158575125 0.0019965702758 
0.0019775669037 0.0019588276718 0.0032662352767 0.0032287617125 0.0031918563248 0.0031554978322 0.0031197038954 0.0030844689298 0.0030497392855 
0.0030155341038 0.0029818381369 0.0029486484154 0.0029159559481 0.0028837495708 0.0028521131068 0.0028208511696 0.0027900231141 0.0027596796865 
0.0027297793584 0.002700379925 0.0026713388326 0.0026427090025 0.0026144825446 0.0025866621952 0.0025592324618 0.0025321862037 0.0025055244238 
0.0024792386459 0.0024533178558 0.0024277598733 0.0024025705311 0.0023777352337 0.0023532537382 0.0023291243797 0.0023053420716 0.0022818635863 
0.0022587615861 0.0022359981036 0.0022135588607 0.0021914464566 0.0021696512206 0.0021481713178 0.0021270077055 0.0021061488445 0.0020855953893 
0.0020653410028 0.0020453824605 0.0020257216415 0.0020063441951 0.0019872467242 0.0019684217252 0.0019498694508 0.0032429861636 0.0032060237284 
0.0031696025807 0.0031337487147 0.0030984292684 0.0030636572865 0.0030293780678 0.002995615116 0.0029623505675 0.0029295823185 0.0028973001806 
0.0028654969539 0.0028342568022 0.0028033818906 0.0027729342575 0.0027429638516 0.0027134994421 0.0026843867944 0.0026556895501 0.0026273988869 
0.0025994973818 0.0025719927948 0.0025448688486 0.0025181229157 0.002491747596 0.0024657366753 0.0024400863207 0.0024147917744 0.0023898540707 
0.0023652662645 0.0023410248732 0.0023171300099 0.002293578496 0.0022703273494 0.0022474437749 0.0022248996267 0.0022026774204 0.0021807797853 
0.0021591962804 0.0021379235125 0.0021169624124 0.0020963053227 0.0020759495201 0.0020558968579 0.0020361335615 0.0020166598486 0.0019974695321 
0.0019785581326 0.00195991931 0.0019415473371 0.0032208973787 0.0031844110532 0.003148486456 0.0031131013206 0.0030782448675 0.0030439162155 
0.0030100725534 0.0029767322323 0.002943881159 0.0029115163427 0.0028796320275 0.0028483095009 0.0028173588868 0.0027868300222 0.0027567812902 
0.0027272487192 0.0026980658927 0.0026692936674 0.0026409328812 0.0026129672776 0.0025853818 0.0025581771106 0.002531352148 0.0025048906635 
0.0024787908029 0.002453043501 0.0024276517989 0.0024026064608 0.002377910334 0.0023535513421 0.0023295388229 0.0023058705084 0.0022825392609 
0.0022595025831 0.0022368400491 0.0022145057962 0.0021924930898 0.0021707982046 0.0021494187608 0.0021283420185 0.0021075801838 0.0020871257302 
0.0020669629661 0.002047095141 0.0020275214004 0.0020082331473 0.0019892286159 0.0019705008351 0.0019520432387 0.0019338508608 0.0031999326718 
0.0031639261775 0.0031284654478 0.0030935332745 0.0030591279743 0.003025215649 0.0029917937923 0.0029588572334 0.0029264037492 0.0028944290694 
0.0028630162708 0.0028319779777 0.0028013954596 0.0027712319653 0.0027416242234 0.0027123610388 0.0026835153876 0.0026550790691 0.0026270412612 
0.002599388588 0.0025721076705 0.0025452004541 0.0025186577469 0.0024924677746 0.0024666249087 0.0024411320272 0.0024159849156 0.0023911778372 
0.0023667082668 0.0023425766866 0.0023187856481 0.0022953300798 0.0022722071206 0.0022493833027 0.0022269265995 0.0022047915492 0.0021829784076 
0.0021614802962 0.0021403018781 0.0021194204996 0.0020988496687 0.0020785778669 0.0020586034348 0.0020389221369 0.0020195318959 0.0020004262866 
0.0019816032511 0.0019630563432 0.0019447759272 0.0019267564849 0.0031800281905 0.0031444976536 0.0031094833832 0.0030749847402 0.0030410062948 
0.0030075045315 0.0029744888652 0.002941943325 0.0029098725563 0.002878362304 0.0028472268859 0.002816550432 0.0027863246113 0.0027565142238 
0.0027272527891 0.0026983264582 0.0026698129928 0.0026416970148 0.0026139700641 0.0025866173294 0.002559633368 0.0025330123999 0.0025067370803 
0.0024808082353 0.0024552201356 0.0024299718803 0.0024050549895 0.0023804763446 0.0023562240369 0.0023323063353 0.0023087236364 0.0022854717753 
0.0022625133752 0.0022399286105 0.0022176672738 0.002195725373 0.0021741114309 0.0021528035145 0.0021318045115 0.0021111108175 0.0020907225116 
0.0020706353817 0.0020508437784 0.0020313436726 0.002012133877 0.0019932080626 0.0019745638697 0.0019561914436 0.0019380830327 0.0019202335531 
0.0031611363002 0.0031260491047 0.0030914675991 0.0030573909965 0.0030238240946 0.0029907190034 0.0029580885195 0.0029259220173 0.0028943047437 
0.0028630654032 0.0028322863001 0.002801961012 0.0027720809314 0.002742698362 0.0027136837258 0.0026850854548 0.0026568928148 0.0026290909859 
0.0026016689934 0.0025746062234 0.0025479098462 0.0025215576802 0.0024955446993 0.0024698653487 0.0024445177415 0.0024194976004 0.0023948040765 
0.0023704378857 0.002346397908 0.0023226832207 0.0022992991434 0.0022762445971 0.0022534840777 0.0022310956087 0.002209021292 0.0021872654903 
0.0021658290564 0.0021447044167 0.0021238865096 0.0021033726635 0.0020831656387 0.0020632554977 0.0020436420176 0.0020243150637 0.0020052814935 
0.0019865306887 0.0019680581881 0.001949857738 0.0019319184334 0.0019142342063 0.0031431336598 0.0031084711539 0.0030743096952 0.0030406382538 