# vtk DataFile Version 5.1
vtk output
ASCII
DATASET STRUCTURED_POINTS
DIMENSIONS 50 50 50
SPACING 0.002 0.002 0.002
ORIGIN 0.2174 -0.052672 0.02732
POINT_DATA 125000
FIELD FieldData 1
potential 1 125000 double
0.00075465040134 0.00074977578768 0.00074495614229 0.00074018956798 0.00073547643993 0.00073081476091 0.00072621382175 0.00072167095642 0.00071718732936 
0.00071275252997 0.0007083912197 0.00070409075555 0.00069984922516 0.00069566408675 0.0006915322531 0.00068744901229 0.00068340806071 0.00067940540741 
0.00067543399142 0.00067149082735 0.0006675735281 0.0006636729164 0.00065979855893 0.00065594465592 0.0006521113308 0.00064830040321 0.0006445143086 
0.00064075295508 0.00063701966123 0.00063331659751 0.00062964530738 0.00062600702012 0.0006224031758 0.00061883411576 0.00061530014182 0.00061180314367 
0.00060833979887 0.0006049097466 0.00060151526036 0.00059815466893 0.00059483133869 0.0005915450034 0.00058829524343 0.00058508110962 0.00058190653391 
0.00057876688061 0.00057566178052 0.00057258866918 0.00056954472874 0.00056652871845 0.00075414529577 0.00074927362935 0.00074445906868 0.00073969458203 
0.00073498304081 0.0007303298108 0.00072573436385 0.00072119824199 0.00071670910489 0.00071229414397 0.00070794042371 0.00070364792635 0.00069941374611 
0.00069523722577 0.00069111262061 0.00068703700575 0.00068300344065 0.00067900758732 0.00067504351658 0.00067110683954 0.00066719631387 0.00066330263233 
0.00065943491893 0.00065558785645 0.00065176148667 0.00064795880353 0.00064417900128 0.0006404253432 0.00063670006492 0.00063300499794 0.00062934201245 
0.00062571198817 0.00062211625425 0.00061855471049 0.0006150318469 0.00061154007861 0.00060808341807 0.00060466010021 0.00060127129867 0.0005979166714 
0.00059459937952 0.0005913174852 0.00058807365741 0.00058486665919 0.00058169682952 0.00057856306566 0.00057546388332 0.00057239658259 0.0005693599052 
0.00056634990078 0.00075334130771 0.00074847201537 0.00074366040544 0.00073890060059 0.00073419956037 0.00072955339367 0.00072496645728 0.0007204396719 
0.00071596019855 0.00071155535018 0.00070721198923 0.00070292892544 0.00069870577696 0.000694538546 0.00069042366047 0.00068635630688 0.00068233207284 
0.00067834447409 0.00067438858011 0.00067046056165 0.0006665527454 0.0006626725037 0.00065881344191 0.0006549748797 0.00065115857868 0.00064736376596 
0.00064359354133 0.00063984964909 0.00063613418956 0.00063244981423 0.00062879746931 0.00062517763791 0.00062159222228 0.00061804130357 0.00061452730164 
0.00061104583373 0.00060759651493 0.00060418144727 0.00060079905759 0.0005974510289 0.0005941397874 0.00059086604209 0.00058762813535 0.00058442661261 
0.00058126228786 0.00057813386992 0.00057504036339 0.00057197823828 0.00056894647594 0.00056594215566 0.00075216334183 0.00074730372203 0.000742496125 
0.00073774842848 0.00073305711046 0.00072842085983 0.00072384517831 0.00071932995799 0.00071486353585 0.00071047136948 0.0007061413988 0.00070187174023 
0.0006976615219 0.00069350616513 0.00068940328766 0.00068534745697 0.00068133341125 0.00067735696929 0.00067341134622 0.00066949352904 0.0006655955011 
0.00066172539735 0.00065787652374 0.00065404938927 0.0006502431697 0.00064645963321 0.00064270114757 0.00063896973175 0.00063526725485 0.00063159503331 
0.00062795547467 0.0006243496801 0.00062077722657 0.00061724103588 0.00061373574935 0.00061026447481 0.00060682582014 0.00060341843224 0.00060004510359 
0.00059670592906 0.00059340222411 0.00059013500642 0.00058690333737 0.00058370726065 0.00058054832786 0.00057742528814 0.00057433716587 0.00057128080174 
0.00056825466668 0.00056525567415 0.00075056093498 0.00074570904899 0.00074091682071 0.00073618049584 0.00073150166671 0.00072688108893 0.00072231885174 
0.00071780669787 0.00071336897188 0.00070899268571 0.00070467901487 0.00070042560017 0.00069623115428 0.00069209151703 0.00068800332771 0.00068396157093 
0.00067996104529 0.00067599711704 0.00067206462405 0.00066815373315 0.0006642734901 0.00066041560423 0.00065657904206 0.00065276490589 0.00064897170072 
0.00064520213043 0.00064145806884 0.00063774075534 0.00063405343734 0.00063039727453 0.00062677322107 0.00062318216504 0.00061962744392 0.00061610306418 
0.00061261214541 0.00060915116945 0.0006057248238 0.00060232961885 0.00059896663615 0.00059563643147 0.00059234187165 0.00058908190022 0.00058585717172 
0.00058266842261 0.00057951542358 0.00057639810021 0.00057331501395 0.00057026492348 0.00056724395365 0.00056425066735 0.00074849385043 0.00074366010187 
0.00073888284446 0.00073416223629 0.00072949968665 0.00072489679165 0.00072035281244 0.00071585942127 0.0007114407418 0.00070708467534 0.00070279048997 
0.00069855710096 0.00069438190359 0.00069026112474 0.00068619011403 0.00068216552732 0.00067818179857 0.00067423326874 0.00067031594533 0.00066642035436 
0.0006625554114 0.00065871230522 0.00065489146342 0.00065109169035 0.00064731419056 0.00064355959368 0.00063983235275 0.00063613318387 0.00063246348748 
0.00062882530362 0.00062521914463 0.00062164614715 0.00061810874748 0.0006146005877 0.00061112452687 0.00060768040352 0.00060426732736 0.00060088531542 
0.00059753351324 0.00059421421463 0.00059092919683 0.00058767799289 0.00058446141533 0.00058128039464 0.00057813450527 0.00057502400313 0.00057194722948 
0.00056890354417 0.00056588912052 0.00056290227755 0.00074595348729 0.00074113906152 0.00073638043704 0.00073167943313 0.00072703697766 0.0007224551399 
0.00071792072159 0.00071346262536 0.00070906715836 0.00070473457675 0.00070046390951 0.00069625395078 0.00069210076593 0.00068800187283 0.00068395256623 
0.00067994790204 0.000675983661 0.00067205431734 0.00066814891079 0.00066427643051 0.00066042968436 0.00065660472717 0.00065280036602 0.00064901767677 
0.00064525829251 0.00064152301136 0.00063781484582 0.00063413474267 0.00063048533957 0.00062686748829 0.00062328055668 0.00061973091122 0.00061620997222 
0.00061272193734 0.00060926423522 0.00060583710409 0.00060243947291 0.00059907244824 0.00059573402547 0.00059242698838 0.0005891529774 0.00058591161613 
0.00058270463611 0.00057953214767 0.00057639507567 0.00057329235697 0.00057022320229 0.00056718694541 0.00056417995094 0.00056120136393 0.00074294514641 
0.00073815256704 0.00073341724432 0.00072874009811 0.00072412231842 0.00071956542827 0.00071505587059 0.00071062446277 0.00070625613909 0.0007019505296 
0.000697706867 0.00069352300518 0.00068939629763 0.00068532259093 0.00068129805256 0.0006773163648 0.00067337453932 0.00066946700847 0.00066558246954 
0.00066173013041 0.00065790423871 0.00065409754881 0.00065031321912 0.00064655111024 0.00064281237529 0.00063909827021 0.00063541136903 0.00063175313486 
0.00062812505057 0.00062452928179 0.00062096964885 0.00061743867597 0.00061394034059 0.00061047274183 0.00060703543771 0.00060362685363 0.00060024723679 
0.00059689630428 0.00059357301544 0.00059028021598 0.00058701865436 0.00058378938228 0.00058059329648 0.00057743074864 0.00057430305719 0.00057120988807 
0.0005681495275 0.00056512157978 0.00056212402178 0.00055915353748 0.00073949611906 0.00073473069318 0.00073002274567 0.00072537355269 0.00072078414927 
0.00071624279861 0.00071177636503 0.00070737467514 0.00070303658108 0.00069876126822 0.00069454774277 0.00069039338777 0.00068629561318 0.00068224999425 
0.00067825248061 0.00067429710076 0.00067038065002 0.00066649174213 0.00066263531841 0.00065880760807 0.00065500257797 0.00065121975641 0.00064745755974 
0.00064371788864 0.00064000201905 0.00063631130354 0.00063264589003 0.00062901165507 0.00062540827352 0.00062183799626 0.00061830231211 0.00061479529369 
0.00061132060344 0.00060787562556 0.00060446083512 0.00060107294871 0.00059771228228 0.00059437895474 0.00059107305523 0.00058779599295 0.00058454838288 
0.00058133220236 0.00057814815019 0.00057499744864 0.00057188087863 0.00056879838242 0.00056574789518 0.00056273002382 0.00055974226819 0.00055678207308 
0.00073565597707 0.00073092299614 0.00072624664528 0.00072162901759 0.00071707187696 0.00071256290829 0.00070812970141 0.00070376109687 0.00069945561213 
0.00069521315715 0.00069103211747 0.00068690992326 0.00068284379151 0.00067882921016 0.00067486085926 0.00067093398906 0.00066704390761 0.00066318154568 
0.00065935384805 0.00065554986839 0.00065176982187 0.00064801121036 0.00064427434405 0.00064055771388 0.0006368664503 0.00063320068202 0.00062956221602 
0.0006259537017 0.00062237637225 0.00061883468629 0.00061532164896 0.00061184099298 0.00060839038227 0.00060496985225 0.00060157726996 0.00059821146426 
0.00059487204583 0.00059155830031 0.00058827000313 0.00058501038075 0.00058177831247 0.00057857699719 0.00057540657146 0.00057226928598 0.00056916537647 
0.00056609454335 0.00056305629249 0.00056004940655 0.00055707316405 0.00055412429641 0.00073148798291 0.00072679028552 0.00072215032133 0.00071756858756 
0.00071303370844 0.00070857403882 0.00070417614752 0.00069984342787 0.00069557401513 0.00069136723325 0.000687220997 0.00068313279691 0.00067909969604 
0.00067511634125 0.0006711796079 0.00066728343558 0.00066341766659 0.00065958931202 0.00065578931725 0.00065201251203 0.00064825955358 0.00064452647918 
0.00064081522336 0.00063712686411 0.00063346236299 0.00062982348689 0.00062621203958 0.00062263029498 0.0006190837318 0.00061556571505 0.00061207968034 
0.00060862535065 0.00060520074064 0.00060180524913 0.00059843661794 0.00059509385455 0.00059177622315 0.00058848177782 0.00058521359111 0.00058197290977 
0.0005787583021 0.00057557323815 0.00057241838592 0.00056929534335 0.00056620514014 0.0005631477263 0.0005601225452 0.00055712842181 0.00055416402699 
0.00055122742454 0.00072706700696 0.00072240881297 0.00071780688977 0.00071326401224 0.0007087685753 0.00070434701977 0.00069998821663 0.0006956926434 
0.00069146115743 0.00068729147934 0.00068318192192 0.00067912830948 0.00067512990115 0.00067118115476 0.0006672768493 0.00066340651299 0.00065957707572 
0.00065578041095 0.00065200615253 0.00064825816571 0.00064453327406 0.00064082989171 0.00063714714473 0.00063348600451 0.00062985028671 0.00062623964981 
0.00062265632767 0.00061910316775 0.00061558407037 0.00061209394929 0.00060863602806 0.00060520832376 0.00060181044962 0.00059844022865 0.00059509596988 
0.00059177702947 0.00058848186097 0.00058520935257 0.00058196186658 0.00057874020516 0.00057554425259 0.00057237729159 0.00056923903828 0.00056613219774 
0.00056305713085 0.0005600143229 0.00055700324614 0.00055402283875 0.00055107182467 0.00054814815899 0.00072247282728 0.00071785570924 0.00071329508616 
0.00070879319652 0.00070433827435 0.00069995760646 0.0006956396007 0.00069138394905 0.00068719014302 0.00068305852475 0.00067898633811 0.00067497036763 
0.00067100732062 0.00066709278039 0.00066322138954 0.0006593829205 0.000655584762 0.00065181735624 0.00064807479229 0.00064435644802 0.00064066151429 
0.00063698727039 0.00063333424014 0.00062970291114 0.00062609567735 0.00062251478435 0.00061896076817 0.00061543944793 0.00061194581707 0.00060848401291 
0.00060505331328 0.00060165336973 0.00059828154069 0.00059493669993 0.00059161748629 0.00058832268858 0.00058505072342 0.00058180026968 0.0005785745496 
0.00057537284792 0.00057219654783 0.00056904795613 0.00056592808713 0.00056283813322 0.00055977976525 0.00055675258543 0.00055375697128 0.00055079111775 
0.00054785403243 0.00054494417797 0.00071778119049 0.00071320789421 0.00070869111073 0.00070421893384 0.00069981966283 0.00069547966491 0.00069120251339 
0.00068698818817 0.00068283483493 0.00067874210238 0.00067470780668 0.00067072834229 0.00066680120562 0.00066291893969 0.00065907499629 0.00065527608783 
0.00065150944594 0.00064777147467 0.00064406059554 0.00064037278313 0.00063670780025 0.00063306414257 0.00062944143389 0.00062584060804 0.00062226365552 
0.00061871194389 0.00061519137523 0.00061169649772 0.0006082318048 0.00060479814579 0.00060139443349 0.00059802111062 0.0005946754921 0.00059135597377 
0.00058806182777 0.00058479067808 0.00058154172243 0.00057831419466 0.00057511033051 0.00057192970737 0.00056877394499 0.00056564512962 0.00056254403306 
0.0005594728236 0.000556431529 0.00055342125272 0.0005504410266 0.00054749072123 0.0005445687127 0.00054167283233 0.00071306552315 0.00070853736422 
0.00070406401098 0.00069963606826 0.00069528009371 0.00069098447697 0.00068674946136 0.00068257526225 0.0006784617741 0.00067440772879 0.00067040922468 
0.00066646610782 0.00066257400052 0.00065872666914 0.00065491710235 0.00065114880404 0.00064741323628 0.00064370614884 0.00064002627349 0.00063636879713 
0.00063273427675 0.00062912154972 0.00062552981211 0.00062195965455 0.00061841308394 0.00061489207275 0.00061140118013 0.00060793553795 0.00060449969425 
0.00060109310745 0.00059771685993 0.00059436940966 0.00059104909476 0.00058775448766 0.00058448444842 0.00058123660778 0.00057801118054 0.00057480651908 
0.00057162508566 0.00056846636583 0.00056533185875 0.00056222378665 0.00055914245365 0.00055609013544 0.00055306689345 0.00055007403393 0.0005471104565 
0.00054417548896 0.00054126858568 0.00053838738289 0.00070838963813 0.00070390730031 0.00069946691731 0.00069509661653 0.00069078416018 0.00068653115436 
0.00068233752457 0.00067820224414 0.00067412808804 0.00067011146013 0.00066615125955 0.00066224388193 0.00065838510391 0.00065456699617 0.00065079359293 
0.00064705680999 0.00064335244937 0.00063967576589 0.00063602603134 0.00063239894039 0.00062879528903 0.00062521289931 0.00062165180222 0.00061811286755 
0.00061459709743 0.00061110905878 0.00060764416263 0.0006042080946 0.00060079988602 0.00059742092688 0.00059407025422 0.00059074814512 0.00058745240189 
0.00058418204601 0.00058093492957 0.00057771093938 0.00057450841076 0.00057132706008 0.00056816751846 0.00056503091862 0.00056191794487 0.0005588306465 
0.00055577048775 0.00055273760343 0.00054973292959 0.00054675789978 0.00054381169041 0.00054089286061 0.00053800113363 0.00053513496105 0.00070380966595 
0.0006993728329 0.00069497706144 0.00069065045575 0.00068637944581 0.00068216820823 0.00067801535157 0.00067392123931 0.0006698849388 0.00066590533925 
0.00066197987969 0.00065810675608 0.0006542766709 0.00065049477896 0.00064675299541 0.0006430463092 0.00063937236487 0.00063572539216 0.00063210566244 
0.00062850936082 0.00062493503179 0.00062138331567 0.00061785256245 0.00061434406865 0.00061086127843 0.00060739980278 0.00060396362779 0.00060055513223 
0.00059717476603 0.00059382199541 0.0005904965813 0.0005871986555 0.00058392690744 0.00058067941851 0.00057745504207 0.00057425346848 0.00057107271255 
0.00056791454362 0.00056477776861 0.00056166383307 0.00055857276292 0.00055550721839 0.00055246762161 0.00054945482161 0.00054646944955 0.00054351237027 
0.00054058329901 0.0005376815727 0.00053480530081 0.00053195429868 0.00069936565293 0.00069495949488 0.00069062048071 0.00068633705813 0.00068210909349 
0.00067793811915 0.00067382440979 0.00066976832921 0.00066576894976 0.00066182455537 0.00065793305146 0.00065409426236 0.00065029425709 0.0006465433578 
0.0006428311896 0.00063915420138 0.00063550931323 0.00063189141679 0.00062830104533 0.0006247338378 0.00062118924506 0.00061766723024 0.00061416702858 
0.00061069024206 0.00060723371853 0.00060380085393 0.00060039225057 0.0005970109769 0.00059365637108 0.00059032906385 0.00058702765965 0.0005837529274 
0.00058050350904 0.00057727891696 0.00057407665072 0.00057089726992 0.00056773858061 0.000564602138 0.00056148790454 0.00055839599188 0.0005553269893 
0.00055228290027 0.00054926466029 0.00054627213935 0.00054330656621 0.00054036769798 0.00053745664906 0.00053457091472 0.00053171112865 0.0005288750893 
0.00069509228221 0.0006907290082 0.00068643211783 0.00068218904852 0.00067800085925 0.0006738686785 0.00066979248023 0.00066577269028 0.00066180814856 
0.00065789689092 0.00065404048374 0.00065022488266 0.00064646079392 0.00064273904441 0.00063905627154 0.00063540768969 0.00063179057278 0.00062820104938 
0.0006246392308 0.00062110029691 0.00061758490088 0.00061409118696 0.00061061904134 0.00060717114414 0.00060374217262 0.00060033667406 0.00059695507152 
0.00059359973332 0.00059026949336 0.00058696570246 0.00058368748561 0.0005804344687 0.00057720741533 0.00057400412356 0.00057082333733 0.00056766496386 
0.00056452779365 0.00056141353278 0.00055832103234 0.00055525085687 0.00055220323003 0.00054918091595 0.00054618336942 0.00054321161206 0.00054026567885 
0.00053734612519 0.00053445235505 0.00053158391442 0.00052874001163 0.00052591957226 0.00069099669846 0.00068668805501 0.00068243080784 0.00067822669552 
0.00067407614923 0.00066998061437 0.00066594032389 0.00066195494086 0.00065802241966 0.0006541454799 0.00065031691837 0.00064653118114 0.00064279546934 
0.00063910180319 0.0006354463172 0.00063182482195 0.00062823438437 0.00062467322747 0.00062113838066 0.00061762753109 0.00061413897643 0.00061067239806 
0.00060722997174 0.00060380627696 0.00060040402009 0.00059702372779 0.0005936680599 0.00059033657412 0.00058702953024 0.00058374758772 0.00058049212743 
0.00057726076066 0.00057405397624 0.00057087087186 0.00056771067118 0.0005645730647 0.00056145692006 0.00055836342406 0.00055529237784 0.00055224399388 
0.00054921817758 0.00054621696534 0.00054324040624 0.00054028906907 0.00053736284812 0.00053446196435 0.00053158622161 0.00052873524071 0.0005259093991 
0.0005231046996 0.00068712090766 0.00068285046216 0.00067863057118 0.00067446293595 0.00067034807566 0.00066628714559 0.00066227936137 0.00065832649134 
0.00065442717647 0.00065057827416 0.00064677209081 0.00064301960886 0.00063931117161 0.00063564374003 0.00063201424439 0.00062841866727 0.00062485446543 
0.00062131926096 0.00061781032741 0.00061432563684 0.00061086328241 0.0006074248482 0.00060400526104 0.00060060681872 0.00059722928859 0.00059387401749 
0.00059054145562 0.00058723257364 0.00058394696908 0.00058068640079 0.00057745050706 0.00057423969423 0.00057105281187 0.00056788935241 0.00056474887669 
0.00056163117968 0.00055853490854 0.00055546222789 0.00055241217096 0.0005493849046 0.00054638013713 0.00054339998676 0.00054044441804 0.0005375130816 
0.00053460807532 0.00053172606158 0.00052886860846 0.00052603499331 0.00052322457601 0.00052043600463 0.00068345978526 0.00067922433715 0.00067503975815 
0.00067090629288 0.00066682492291 0.00066279569058 0.00065881850152 0.00065489777402 0.00065102491515 0.00064719786064 0.00064342520822 0.00063969753835 
0.00063601448842 0.00063237200157 0.00062876699237 0.00062519602251 0.00062165632267 0.0006181462809 0.00061466176627 0.00061120130792 0.00060776607311 
0.00060434936225 0.00060095320633 0.00059757821683 0.00059422404023 0.00059089124114 0.00058758035075 0.00058429201697 0.00058102742396 0.00057778650889 
0.00057456973862 0.00057137706493 0.00056820896777 0.0005650641837 0.00056194292888 0.00055884315195 0.00055576780067 0.0005527149341 0.00054968508418 
0.00054667837522 0.00054369689334 0.00054073758373 0.00053780233568 0.00053489086611 0.00053200339825 0.00052914041102 0.0005263011643 0.00052348491167 
0.00052069130074 0.0005179200393 0.00068001374316 0.00067581167398 0.00067166050623 0.00066755881166 0.00066350842148 0.00065950959852 0.00065556493457 
0.00065166864372 0.00064782318289 0.00064402102599 0.00064027304624 0.00063656981153 0.00063291016909 0.00062929071033 0.00062570923152 0.00062216129126 
0.00061864427928 0.00061515685425 0.00061169530393 0.0006082576913 0.00060484477164 0.00060145050741 0.00059807673152 0.00059472296738 0.0005913900808 
0.00058807734383 0.00058478673192 0.0005815181695 0.0005782726699 0.0005750498855 0.00057185106373 0.00056867620048 0.00056552535573 0.00056239791312 
0.00055929577687 0.00055621437948 0.00055315742434 0.00055012429486 0.00054711447007 0.00054412824173 0.00054116531679 0.0005382265336 0.00053531120226 
0.0005324201767 0.00052955261594 0.00052670822869 0.00052388708523 0.00052108920499 0.00051831311747 0.00051555886489 0.00067678389 0.00067261343077 
0.00066849319129 0.00066442164994 0.00066039970601 0.00065643066559 0.00065251078041 0.00064864077165 0.00064481302204 0.00064104127091 0.00063731593442 
0.00063363548516 0.00062999719684 0.00062639927442 0.00062283891267 0.00061931257641 0.00061581691714 0.00061235050494 0.00060890985524 0.00060549628146 
0.00060210129551 0.00059872752157 0.00059537337315 0.0005920395494 0.00058872540271 0.00058543200041 0.00058215968313 0.00057890917909 0.00057568191403 
0.00057247618215 0.00056929443476 0.0005661358835 0.00056300113531 0.00055989119927 0.00055680417988 0.00055374035424 0.00055070173295 0.00054768707322 
0.00054469690962 0.00054173043405 0.00053878738718 0.00053586840287 0.0005329728954 0.00053010098137 0.00052725296892 0.00052442798964 0.00052162579395 
0.00051884605829 0.00051608791348 0.0005133509396 0.00067377081966 0.00066962998792 0.00066553806613 0.00066149430491 0.00065750224127 0.00065355637729 
0.00064966045616 0.00064580774973 0.00064200859349 0.00063825741727 0.00063455312257 0.00063089283295 0.00062727451114 0.00062369670982 0.00062015595679 
0.00061664798921 0.00061317230678 0.00060972517328 0.00060630655708 0.00060290916154 0.00059953320212 0.00059617952041 0.0005928433114 0.00058952737288 
0.00058623067432 0.00058295382378 0.00057969790336 0.00057646383387 0.00057325140771 0.0005700606754 0.00056689429843 0.00056375134988 0.00056063237827 
0.00055753739484 0.00055446741991 0.00055142060244 0.00054839920308 0.00054540306271 0.00054243170856 0.00053948388165 0.00053656019379 0.00053366118851 
0.00053078605098 0.00052793460785 0.00052510605951 0.00052230031735 0.0005195175961 0.00051675576928 0.00051401613421 0.00051129695799 0.00067097160298 
0.00066685823926 0.00066279266737 0.00065877791265 0.0006548078397 0.0006508855897 0.00064701287163 0.00064318056347 0.00063940212892 0.00063567121033 
0.00063198704621 0.000628345655 0.00062474521326 0.0006211853133 0.00061766206548 0.00061417151795 0.00061071350813 0.00060728649366 0.00060388210085 
0.00060050129717 0.00059714218789 0.00059380284285 0.00059048357832 0.00058718371064 0.00058390259713 0.00058064081527 0.00057739955944 0.00057418010244 
0.00057098162723 0.00056780582078 0.0005646533877 0.00056152441059 0.00055842014078 0.00055534021313 0.00055228589917 0.00054925553306 0.00054625126798 
0.00054327243063 0.00054031872532 0.00053738984138 0.00053448510366 0.00053160549825 0.00052874997653 0.0005259179566 0.00052310936785 0.00052032303603 
0.00051755937417 0.00051481643543 0.00051209497054 0.00050939455464 0.00066838429731 0.00066429682287 0.00066025890526 0.00065626541289 0.00065231799789 
0.00064841818659 0.0006445601019 0.0006407537179 0.00063699397207 0.00063328057973 0.00062961245311 0.00062598721709 0.00062240371733 0.00061885951878 
0.00061535139263 0.00061187622043 0.00060843337169 0.00060502206609 0.00060163277305 0.00059826705064 0.00059492144899 0.00059159753006 0.00058829278518 
0.00058500658254 0.00058173921062 0.00057849107683 0.00057526296207 0.00057205597802 0.00056887111364 0.00056570839831 0.00056256854592 0.00055945293036 
0.0005563623771 0.00055329712089 0.0005502562283 0.00054724269978 0.00054425477149 0.0005412928601 0.00053835659111 0.00053544593008 0.00053256011313 
0.0005296995351 0.00052686359937 0.00052405067035 0.00052126108956 0.00051849447263 0.00051574923627 0.00051302576294 0.00051032357656 0.00050764130769 
0.00066600518082 0.000661945114 0.00065792652935 0.00065395481445 0.0006500289151 0.00064614337035 0.0006423106263 0.00063852195448 0.00063477885565 
0.00063108174046 0.00062742882299 0.00062381876237 0.00062024904168 0.00061671853841 0.00061322417661 0.000609762674 0.0006063358419 0.00060293445451 
0.00059955877692 0.00059620625467 0.00059287295565 0.0005895615692 0.00058626938107 0.00058299528288 0.00057973983675 0.00057650379361 0.00057328707998 
0.00057009172337 0.00056691875902 0.0005637675911 0.00056064007177 0.00055753693381 0.00055445906473 0.00055140705801 0.00054838038775 0.00054538083413 
0.00054240932386 0.00053946360892 0.00053654427266 0.00053365174537 0.00053078438388 0.00052794240727 0.00052512498903 0.00052233136844 0.00051956124768 
0.00051681326728 0.00051408795767 0.00051138386898 0.00050870067326 0.00050603800045 0.00066383567476 0.00065979560041 0.00065579869569 0.00065184717585 
0.00064794131675 0.00064407495448 0.00064025832704 0.00063648613943 0.00063275817107 0.00062907488802 0.00062543515858 0.00062183807449 0.00061828093143 
0.00061476187292 0.00061127899931 0.00060783231736 0.00060441396395 0.00060102410506 0.00059765919309 0.00059431664435 0.00059099553994 0.00058769470557 
0.00058441281456 0.00058114951214 0.00057790452904 0.00057467892162 0.00057147295685 0.00056828776924 0.00056512463507 0.00056198447322 0.00055886802195 
0.00055577662922 0.00055271024528 0.00054967099899 0.00054665757491 0.00054367234543 0.00054071561039 0.00053778569526 0.00053488318647 0.00053200784491 
0.00052915813908 0.00052633454381 0.00052353566318 0.00052076096037 0.00051800987686 0.00051528167849 0.00051257555261 0.00050989097122 0.00050722730267 
0.00050458442178 0.00066186967982 0.00065785085063 0.00065387416814 0.00064994226835 0.00064604781907 0.00064220398529 0.00063840281659 0.000634645266 
0.00063093062334 0.00062725980332 0.00062363169614 0.00062004514911 0.00061649806995 0.00061298918003 0.00060951846347 0.0006060792803 0.00060267077436 
0.00059928996647 0.00059593286937 0.0005926010239 0.00058928910029 0.0005859974938 0.00058272436625 0.00057946994685 0.0005762339372 0.00057301708725 
0.00056982028095 0.00056664430168 0.00056349074892 0.0005603599784 0.00055725371998 0.00055417246234 0.00055111767695 0.00054809019183 0.00054508985121 
0.000542117587 0.00053917475786 0.00053626066291 0.00053337410714 0.00053051519287 0.00052768283348 0.00052487680741 0.00052209659244 0.00051934036426 
0.00051660842394 0.00051389947807 0.00051121216141 0.00050854733328 0.00050590373959 0.00050328026435 0.00066010960472 0.00065611033591 0.00065215312683 
0.00064823241157 0.00064436045148 0.0006405317082 0.00063674440892 0.00063299913499 0.0006292963071 0.00062563591215 0.00062201650224 0.00061843901253 
0.00061490075343 0.00061140319388 0.00060793714298 0.000604506078 0.00060110515446 0.00059773107465 0.00059438282457 0.00059105818634 0.00058775359891 
0.00058446978414 0.0005812041748 0.00057795694739 0.00057472843969 0.00057151972474 0.00056833091547 0.0005651629129 0.00056201775729 0.0005588952257 
0.00055579813967 0.00055272671374 0.00054968288509 0.00054666631405 0.00054367766609 0.00054071925279 0.00053778936081 0.00053488921338 0.00053201815413 
0.00052917520304 0.00052635972536 0.00052357121181 0.00052080789908 0.00051807020907 0.00051535720115 0.00051266826104 0.00051000129559 0.00050735648232 
0.00050473365481 0.00050212998728 0.00065855477493 0.00065457309159 0.00065063278164 0.0006467286061 0.00064287121507 0.00063905664186 0.00063528088038 
0.0006315469221 0.0006278537584 0.00062420247711 0.00062059213037 0.00061702205903 0.0006134935806 0.00060999929643 0.00060653998525 0.00060311478007 
0.00059971991903 0.00059635215821 0.00059301074527 0.00058969155764 0.0005863929222 0.00058311488359 0.00057985566001 0.00057661471615 0.00057339317042 
0.00057019121322 0.0005670086255 0.00056384706491 0.00056070932367 0.00055759508971 0.00055450601807 0.00055144382618 0.00054840948937 0.00054540254496 
0.00054242592857 0.0005394798239 0.00053656302584 0.00053367656839 0.00053081949257 0.00052799127951 0.0005251922581 0.00052242037004 0.0005196753494 
0.00051695572726 0.00051426110237 0.00051159135726 0.00050894397205 0.0005063187746 0.00050371443974 0.0005011314693 0.00065720359105 0.00065323857258 
0.00064930796713 0.00064542469742 0.00064158078184 0.00063777816451 0.00063401314855 0.00063028887671 0.00062660433683 0.00062296047115 0.0006193565043 
0.00061579200959 0.00061226927282 0.00060877996137 0.00060532547809 0.00060190527788 0.00059851433717 0.00059515231772 0.00059181556158 0.00058850171057 
0.0005852075377 0.00058193430776 0.00057867985335 0.00057544450101 0.00057222792019 0.00056903074891 0.0005658539676 0.00056269880007 0.00055956714847 
0.00055645999632 0.0005533784619 0.00055032429388 0.00054729896992 0.00054430202123 0.00054133517496 0.0005384007632 0.00053549647178 0.00053262345902 
0.00052978028729 0.00052696716435 0.00052418338614 0.00052142747935 0.00051869884982 0.00051599751289 0.00051332130652 0.00051066963813 0.00050804130384 
0.0005054356935 0.00050285179443 0.00050028897454 0.00065605295275 0.00065209720623 0.00064818698949 0.00064431689491 0.00064048594306 0.00063669398086 
0.00063293817821 0.00062922165016 0.00062554398874 0.00062190578197 0.00061830712487 0.00061475030388 0.00061122875821 0.00060774264936 0.00060429293312 
0.00060087535136 0.00059748990552 0.00059413100443 0.00059079825122 0.000587488115 0.00058419805724 0.00058092775332 0.0005776778716 0.0005744463429 
0.0005712339921 0.00056804070381 0.00056486904474 0.0005617187618 0.00055859265293 0.00055549036961 0.00055241554228 0.00054936931925 0.00054635217058 
0.00054336403091 0.00054040844625 0.00053748463224 0.00053459217376 0.00053173111615 0.0005289013408 0.00052610089879 0.00052333220817 0.0005205929853 
0.00051788051686 0.0005151951565 0.00051253658901 0.00050990292645 0.00050729368021 0.00050470765855 0.00050214399618 0.00049960182434 0.00065509687182 
0.00065115666082 0.00064725893712 0.00064340095695 0.00063958133996 0.00063579788274 0.00063205059776 0.00062834047617 0.00062466840606 0.00062103507862 
0.00061744326545 0.00061388726272 0.00061036874423 0.00060688598716 0.00060343825747 0.00060002498 0.00059664169235 0.00059328634464 0.00058995626526 
0.00058664885578 0.00058336163717 0.00058009521482 0.00057684800958 0.00057361929715 0.00057040895781 0.00056721935205 0.00056405134127 0.00056090549434 
0.00055778349601 0.00055468711459 0.00055161864191 0.00054857887892 0.00054556904008 0.00054258990236 0.00053964374786 0.00053672940137 0.00053384751527 
0.00053099781549 0.00052818131444 0.0005253943113 0.00052263933802 0.00051991357268 0.00051721663986 0.00051454756772 0.00051190583356 0.00050929002639 