# vtk DataFile Version 5.1
vtk output
ASCII
DATASET STRUCTURED_POINTS
DIMENSIONS 20 20 20
SPACING 0.005 0.005 0.005
ORIGIN 0.2189 -0.051172 0.02882
POINT_DATA 8000
FIELD FieldData 1
potential 1 8000 double
0.032011623346 0.030602056549 0.029211900306 0.027850161379 0.026524483722 0.025240651076 0.024002597507 0.022813226793 0.021674379418 
0.020587646 0.019553914916 0.018573242407 0.017644973178 0.016767730401 0.015939768339 0.015158788106 0.014422478192 0.013728635418 
0.013074951273 0.012459030122 0.029720808252 0.02847395166 0.027241399741 0.026031226844 0.024849941008 0.023702807724 0.022593501929 
0.021524355857 0.020497362877 0.019513913112 0.018574991666 0.017681168272 0.016832233315 0.016027396256 0.015265182788 0.014543865747 
0.013861600173 0.013216491393 0.012606710241 0.012030456677 0.027603854792 0.0264981079 0.025402747578 0.024324696571 0.023269948049 
0.022243303992 0.021247918403 0.020286110474 0.019359445652 0.018469207401 0.017616458446 0.016802022485 0.016026138507 0.015288182551 
0.014587238036 0.013921871181 0.013290512678 0.012691582412 0.012123685816 0.011585446817 0.025618432614 0.02463702511 0.023662993485 
0.022702302643 0.021760265909 0.020841397675 0.019948435883 0.019083413739 0.018247736327 0.0174424939 0.016668857003 0.015927788257 
0.015219599874 0.014544124815 0.013900609827 0.013288051293 0.012704977993 0.012150206373 0.011622612195 0.011121233084 0.023752079391 
0.022881376952 0.022015673598 0.021160024026 0.020319450564 0.019497519633 0.018696931263 0.01791950828 0.017166528069 0.016439028013 
0.015738143798 0.015064703565 0.014419366818 0.013802129244 0.013212397944 0.012649465343 0.012112123692 0.011599526411 0.011110669709 
0.010645084086 0.022012689474 0.021240367731 0.020471289962 0.019709900148 0.018960185126 0.018225251803 0.017507732447 0.016809259037 
0.016131092369 0.015474161712 0.014839560479 0.014228288366 0.013640880816 0.013077371529 0.012537596202 0.012020821349 0.011526395084 
0.011053525733 0.010601624358 0.010170245928 0.020413391246 0.0197277774 0.019044343748 0.018366347604 0.017697272791 0.017039931651 
0.016396514331 0.015768676395 0.015157492939 0.014564139836 0.013989609791 0.01343476794 0.012900074111 0.012385759612 0.011891708953 
0.011417478442 0.010962759088 0.010526893831 0.010109546908 0.0097103021768 0.018960932645 0.018351099151 0.017742386124 0.017137782155 
0.016539881419 0.015951023838 0.015373207814 0.014807921511 0.014256502984 0.013719927925 0.013199204017 0.012695022459 0.012207970582 
0.01173818054 0.011285648001 0.010850320093 0.01043187613 0.010030057723 0.0096445267505 0.0092750262432 0.017652901921 0.017108736829 
0.016565192799 0.016024459113 0.015488651905 0.014959872296 0.014439804 0.01392988395 0.013431343603 0.012945222994 0.01247235628 
0.012013527224 0.011569128281 0.011139410937 0.010724494362 0.010324350953 0.0099389781252 0.0095680936627 0.0092116127497 0.0088692455485 
0.016480033698 0.015992751059 0.015505577339 0.015020284406 0.014538662285 0.014062417169 0.013593037853 0.013131853926 0.012680043989 
0.012238564917 0.011808230888 0.011389707533 0.010983450414 0.010589688069 0.010208639646 0.0098403569914 0.0094848215365 0.0091420379503 
0.0088118554852 0.0084941248027 0.015430226543 0.014992178208 0.014553828274 0.014116638677 0.013682128737 0.013251752011 0.012826815856 
0.012408492 0.011997907486 0.011595919688 0.011203302681 0.010820671491 0.010448416401 0.010086901089 0.0097362897147 0.0093967173987 
0.0090682005468 0.0087507930512 0.0084444383737 0.0081490543015 0.014491016138 0.014095668007 0.013699636466 0.013304222718 0.012910766133 
0.012520459474 0.012134500189 0.011753871044 0.011379642174 0.011012601331 0.010653428305 0.010302740151 0.009960929313 0.0096282689499 
0.0093049831118 0.0089912141566 0.0086870657896 0.0083925625932 0.0081077478162 0.0078326040456 0.013651057039 0.013292743373 0.012933429352 
0.012574375509 0.012216676077 0.011861447375 0.011509688605 0.01116232009 0.010820212151 0.010484082752 0.010154654326 0.0098323982017 
0.0095177134687 0.0092108830589 0.008912141936 0.008621586013 0.0083393363189 0.0080655084754 0.0078001825711 0.0075433743185 0.012900258989 
0.012574118152 0.012246795372 0.011919334757 0.011592839688 0.01126828756 0.010946583462 0.010628481787 0.010314707118 0.010006012861 
0.0097029515906 0.0094060423331 0.0091156469669 0.0088319937142 0.0085552955525 0.0082856043452 0.0080231021798 0.0077679239743 0.0075201684374 
0.0072799067454 0.012228858199 0.011930687673 0.011631096884 0.011331199617 0.011032020109 0.010734392523 0.010439080292 0.010146799342 
0.0098581166703 0.009573691105 0.0092940991553 0.0090198232452 0.0087511890386 0.0084884048625 0.0082314904004 0.0079806287621 0.0077359106055 
0.0074975203465 0.0072655939125 0.007040291137 0.011626002238 0.011352189821 0.011076840099 0.010801034183 0.010525752145 0.01025183813 
0.0099798955171 0.0097104080364 0.0094439754542 0.0091811657527 0.0089225357658 0.0086685050566 0.0084194034801 0.0081753650683 0.0079363677328 
0.0077025117477 0.0074738781223 0.0072506494572 0.0070330165215 0.006821191945 0.011078257414 0.010825829696 0.010571790096 0.010317255715 
0.010063219298 0.0098103235557 0.0095591172738 0.0093100251297 0.0090635060062 0.0088200645531 0.0085802737393 0.0083444760429 0.0081129945844 
0.0078858599146 0.0076631071182 0.0074447036411 0.0072306765658 0.0070212314806 0.0068166212485 0.00661708841 0.010569216536 0.010335963972 
0.010101051221 0.0098656195944 0.0096306049617 0.0093966772719 0.0091642309849 0.008933646189 0.0087051990572 0.0084793887124 0.0082566743779 
0.0080374760794 0.0078219546544 0.0076102436709 0.0074022801639 0.0071979879751 0.0069974110609 0.0068007165348 0.006608179264 0.0064200627609 
0.010081943951 0.0098662402223 0.009648904771 0.0094310095839 0.0092134870147 0.0089969582045 0.0087817752918 0.0085682007037 0.008356493886 
0.0081469991493 0.0079401295878 0.0077361713519 0.007535391596 0.0073378470825 0.0071435169344 0.0069523375792 0.0067643488989 0.0065796911844 
0.0063986105895 0.0062213699269 0.009603147322 0.0094039040953 0.0092030088694 0.0090015590371 0.0088004090853 0.0086001535658 0.0084011342595 
0.0082035453045 0.0080075430081 0.0078133622884 0.0076212544525 0.0074315881136 0.0072445752768 0.0070602850341 0.0068787522178 0.0066999645459 
0.0065239673007 0.0063508679426 0.0061808700034 0.0060142104712 0.0361457359 0.03458245078 0.033039850354 0.031527025265 0.030051919397 
0.028620774819 0.027238628278 0.02590896355 0.024634462811 0.023416781796 0.022256658788 0.021154294809 0.020109029798 0.01911960426 
0.018184241506 0.017300806308 0.016466987821 0.015680418581 0.014938674631 0.014239237195 0.03353448912 0.032151878316 0.030784676652 
0.029440819912 0.028126986467 0.026848867987 0.025610803589 0.024416158214 0.023267274331 0.022165843656 0.021112911126 0.020108982034 
0.019153844782 0.018246784502 0.017386453073 0.01657124622 0.015799494512 0.015069189217 0.014378389742 0.013725167115 0.031148952337 
0.029922380597 0.028707114795 0.027509960438 0.026336856367 0.025192823493 0.024081822986 0.023006738648 0.021969721372 0.020972484688 
0.020016156522 0.019101446189 0.01822854146 0.017396937147 0.016605824718 0.01585393221 0.01513994234 0.014462322551 0.013819523207 
0.013209980923 0.028948347732 0.027857893079 0.026775738265 0.025707521195 0.024658543963 0.023633322669 0.022635218351 0.021666803064 
0.020730217233 0.019826972072 0.018958270086 0.018124951891 0.017327355702 0.016565293497 0.015838190673 0.015145286287 0.014485344077 
0.013857311725 0.013259914458 0.012692023725 0.026910330713 0.025939795547 0.0249749166 0.024020918829 0.023082289625 0.02216276149 
0.021265435826 0.020392807581 0.019546654496 0.018728524486 0.017939453706 0.017180435539 0.016451917137 0.015753920651 0.015086223767 
0.01444812782 0.013838795199 0.013257412305 0.012702940032 0.012174690497 0.025026448755 0.024161640844 0.023300791339 0.022448179833 
0.021607478514 0.020782190816 0.019975054342 0.019188251426 0.018423553362 0.017682205093 0.016965490596 0.016274255103 0.015609000121 
0.014969985656 0.014357078553 0.013769769602 0.013207605141 0.012669816376 0.012155837415 0.011665023205 0.023294495674 0.022522943934 
0.021753943831 0.020990892179 0.020237210532 0.019495803228 0.018769167478 0.018059169986 0.017367431843 0.016695368737 0.016044053166 
0.015414334273 0.014806745233 0.014221656061 0.013658981329 0.01311854546 0.012599947323 0.012102796525 0.011626590019 0.011170883456 
0.021712070921 0.021022338926 0.020334055905 0.019650253445 0.018973542885 0.01830651645 0.017651292774 0.017009769211 0.016383410492 
0.015773472864 0.01518103061 0.014606857551 0.014051595707 0.013515523047 0.012998720301 0.012501182618 0.012022736566 0.01156304565 
0.011121840346 0.010698752587 0.020273520876 0.019655500522 0.019038151794 0.018423825239 0.017814949165 0.017213671973 0.016621872442 
0.016041221136 0.015473109481 0.014918711595 0.014379076562 0.013854932737 0.013346864237 0.012855188007 0.012380127533 0.011921771277 
0.011479999031 0.011054685447 0.010645671967 0.010252631103 0.018970201111 0.018414903857 0.017859590544 0.017306319035 0.01675709729 
0.016213775028 0.015678054361 0.015151423518 0.014635131607 0.014130352897 0.013637943167 0.013158692874 0.01269306997 0.012241541759 
0.011804282734 0.011381532046 0.010973237596 0.010579329321 0.010199749835 0.009834292365 0.017791599271 0.017291121719 0.016790082133 
0.016290310071 0.015793489874 0.015301267532 0.014815101706 0.014336307454 0.013866098029 0.013405466562 0.012955293478 0.012516207608 
0.01208881699 0.011673505847 0.011270537456 0.010880085882 0.010502196274 0.010136940305 0.0097842488781 0.0094440109093 0.016726410404 
0.01627387959 0.015820415506 0.015367549886 0.01491681948 0.014469607395 0.014027178699 0.013590818949 0.013161541991 0.012740271236 
0.012327828814 0.011924830183 0.011531796387 0.011149125915 0.010777100099 0.010415881515 0.010065650126 0.0097264067951 0.009398227263 
0.0090810558904 0.01576370005 0.015353174772 0.014941357888 0.014529712181 0.014119492923 0.013711978012 0.013308341262 0.012909605322 
0.012516738993 0.012130571754 0.011751848591 0.011381159544 0.01101899941 0.010665750622 0.010321687784 0.0099869651763 0.0096617911944 
0.0093462251708 0.0090403765417 0.0087442481316 0.014893028388 0.014519359965 0.014144145473 0.013768677358 0.013394181474 0.01302173869 
0.012652388687 0.012287023221 0.011926578532 0.011571731502 0.011223181675 0.010881499542 0.010547134565 0.010220418185 0.0099016288598 
0.0095909132195 0.009288484366 0.0089944465145 0.0087089156485 0.0084319743723 0.014103959717 0.013762649042 0.013419625717 0.013076097751 
0.01273310815 0.012391698428 0.012052759883 0.011717148461 0.01138556329 0.011058704975 0.010737221657 0.010421605649 0.010112285132 
0.0098095797831 0.0095136427131 0.0092246973843 0.0089429253188 0.0086684569625 0.0084014642334 0.0081420191685 0.013385491342 0.013072753144 
0.012758140812 0.012442784636 0.01212774916 0.011813961913 0.011502131042 0.011193010802 0.010887279866 0.010585537277 0.010288379882 
0.0099962818831 0.0097096029967 0.0094285689724 0.0091534102016 0.0088842720925 0.0086213184237 0.0083647154945 0.0081146242281 0.0078711779162 
0.012725607305 0.012438212099 0.012148878191 0.011858702717 0.011568601313 0.011279442394 0.010991906039 0.010706617148 0.010424153221 
0.010145095996 0.0098699078773 0.0095990563429 0.0093328970194 0.0090715946347 0.0088153795568 0.0085643283892 0.0083185945099 0.008078345605 
0.007843769098 0.007615044089 0.012111554333 0.011846934355 0.011580305232 0.011312725845 0.011045099557 0.010778204766 0.010512672102 
0.010248963796 0.0099876224264 0.0097291253574 0.0094739440022 0.0092225078131 0.0089750281461 0.0087317775029 0.0084928835179 0.0082584333449 
0.0080285697159 0.0078034507596 0.0075832711057 0.0073682066026 0.011531231422 0.011287267565 0.01104129936 0.010794320874 0.010547182819 
0.010300579001 0.010055084124 0.00981114132 0.009569166658 0.009329567781 0.0090927834381 0.008859090532 0.008628838949 0.0084021987716 
0.0081792944481 0.0079602288473 0.0077451284337 0.0075341494206 0.0073274711994 0.0071252707417 0.010974977094 0.010750039881 0.010523119285 
0.010295119126 0.010066857347 0.0098389799776 0.0096119999425 0.0093862967908 0.0091622075532 0.0089401114872 0.0087202752786 0.0085030752721 
0.0082887719655 0.0080775449772 0.0078695270973 0.0076648408153 0.0074636039209 0.007265958497 0.0070720587352 0.0068820964115 0.03998633908 
0.038290408053 0.036615664519 0.034971598915 0.033366182456 0.031806368472 0.030297644631 0.028844081092 0.027448804722 0.026113761585 
0.0248398618 0.023627401536 0.022475825058 0.021384047421 0.020350287134 0.019372514793 0.018448548945 0.017575957837 0.016752117244 
0.015974529216 0.037118905882 0.03561642027 0.03413000166 0.032667407998 0.031235717876 0.029841044746 0.028488055749 0.027180726052 
0.025921803847 0.024713265735 0.023556336497 0.02245156821 0.021398922068 0.020397649376 0.019446600503 0.018544314656 0.017689102506 
0.016879031017 0.016112057168 0.015386197309 0.034508365557 0.033173257933 0.031849968909 0.030545195159 0.029265190417 0.028015240697 
0.026799575212 0.025621639488 0.0244840448 0.023388678313 0.022336947984 0.021329644069 0.020366834062 0.019448319984 0.018573231477 
0.017740683097 0.016949228488 0.016197454529 0.0154837755 0.01480653271 0.032115833496 0.030926475126 0.029745744219 0.028579333987 
0.027432845897 0.026310651236 0.025216633678 0.024153845578 0.023124730568 0.022131121936 0.021174471622 0.020255502266 0.019374676452 
0.01853197502 0.017726899523 0.016958805918 0.016226684847 0.015529400295 0.014865679909 0.014234419041 0.029914767264 0.028853209386 
0.027797806574 0.026753574292 0.025725073353 0.024716151322 0.023730415609 0.02277055532 0.021838770578 0.020936911784 0.020066152368 
0.019227566301 0.018421639964 0.017648443967 0.016907962479 0.0161995333 0.015522601504 0.01487618437 0.014259435839 0.013671460989 
0.027888592841 0.026939632558 0.025994938559 0.025058584918 0.024134553617 0.023226472981 0.022337283721 0.021469573114 0.020625204047 
0.019805960861 0.019013116687 0.018247609869 0.017509989388 0.016800652696 0.016119487145 0.015466241851 0.014840495713 0.014241507401 
0.013668771663 0.013121502773 0.026026585751 0.025176886631 0.024329750419 0.023488921426 0.022657757232 0.021839392571 0.021036385657 
0.020250997213 0.019485162457 0.018740397891 0.018017956886 0.017318726519 0.016643436972 0.015992417947 0.015365726562 0.014763340906 
0.01418489278 0.013630005826 0.01309825753 0.0125890869 0.024320151234 0.023557767137 0.022796926628 0.022040617432 0.021291776829 
0.020553047798 0.019826810642 0.019115129647 0.018419687093 0.017741922398 0.017082981449 0.016443862172 0.015825155606 0.01522726937 
0.014650482164 0.014094722853 0.013559934341 0.013045807201 0.012552093784 0.012078364842 0.022760431346 0.022075100635 0.021390257027 
0.020708603672 0.020032646793 0.0193647 0.018706870437 0.018060939981 0.017428516126 0.016810872464 0.016209203816 0.015624328961 
0.015056895125 0.014507414908 0.013976084757 0.013463092781 0.012968345003 0.012491777579 0.012033204778 0.011592283905 0.021337858042 
0.02072025813 0.02010246496 0.019486744322 0.018875278697 0.018270121618 0.01767307707 0.017085798711 0.016509703634 0.015946042267 
0.01539585842 0.01485989767 0.01433889803 0.013833246009 0.013343367677 0.012869395828 0.01241137874 0.011969281461 0.01154303863 
0.011132414965 0.020041974054 0.019484030507 0.018925307487 0.018367769677 0.017813390488 0.017263895311 0.016720897523 0.016185892628 
0.015660161053 0.015144837932 0.014640813564 0.014148998243 0.013669949476 0.013204148162 0.012751934613 0.01231354745 0.011889065208 
0.011478560356 0.011081996838 0.010699267286 0.018861931188 0.018356512068 0.017849873963 0.017343789959 0.016839916 0.016339779885 
0.015844852548 0.015356441763 0.014875703405 0.014403681448 0.013941290234 0.013489218294 0.013048059576 0.012618307927 0.012200310624 
0.011794310377 0.011400439926 0.011018813738 0.01064949395 0.010292408146 0.017787123665 0.017328024225 0.016867430984 0.016406793135 
0.01594763287 0.015491326481 0.015039181835 0.014592323293 0.014151827533 0.013718661906 0.01329360601 0.012877321567 0.012470425525 
0.012073336476 0.011686425411 0.011309900821 0.01094397189 0.010588772988 0.010244388786 0.0099108063749 0.016807034466 0.016388900765 
0.015968939633 0.015548579401 0.01512909951 0.014711786447 0.014297705027 0.013887961616 0.013483527777 0.013085180255 0.012693726579 
0.012309752487 0.011933812341 0.011566357884 0.011207642551 0.010857972898 0.010517537724 0.010186494759 0.0098649582346 0.0095529941086 
0.015911228407 0.015529352129 0.015145478229 0.014760846673 0.014376642752 0.013994007743 0.013613984698 0.013237465511 0.012865310501 
0.012498301076 0.01213712157 0.011782347074 0.011434450606 0.011093856209 0.010760810437 0.010435613333 0.010118462095 0.0098095299148 
0.0095089479641 0.0092168192027 0.015089245611 0.014739567276 0.014387729629 0.014034905907 0.013682198087 0.013330629164 0.012981043776 
0.012634335502 0.012291252928 0.011952496987 0.011618656582 0.011290317429 0.010967890713 0.010651690278 0.010342074464 0.010039235703 
0.0097434018232 0.0094547324305 0.0091734000896 0.0088995169095 0.014330279513 0.014009363378 0.013686196148 0.013361871308 0.013037394945 
0.012713673441 0.012391525837 0.012071699999 0.01175489608 0.011441688464 0.011132654409 0.010828302971 0.010529010338 0.01023513204 
0.0099469126788 0.009664562624 0.0093882908386 0.0091182734337 0.0088546803989 0.0085976612082 0.013623820991 0.013328749523 0.013031377286 
0.012732720596 0.012433701874 0.012135202679 0.011837878378 0.011542413071 0.011249413308 0.010959453279 0.010673042043 0.010390594487 
0.010112466987 0.0098390018833 0.0095704161463 0.0093069103232 0.0090486832337 0.0087959268246 0.0085487847239 0.0083074271308 0.012960202661 
0.012688545631 0.012414582948 0.012139215264 0.01186333698 0.011587709589 0.011312981485 0.011039755107 0.010768551006 0.010499856622 
0.010234138548 0.0099717564935 0.0097130962685 0.0094584190574 0.0092079491622 0.0089618811723 0.0087203990149 0.0084836850695 0.0082518947212 
0.0080252004573 0.012331625647 0.012081343826 0.011828753727 0.011574699606 0.011319997206 0.011065343277 0.010811341993 0.010558507974 
0.01030730903 0.010058181131 0.0098114764642 0.009567628249 0.0093269098754 0.0090896060656 0.0088559278661 0.0086260738774 0.008400205623 
0.0081784978091 0.0079611264564 0.0077482208286 0.043509168722 0.041702382032 0.039916771771 0.038161900283 0.036446088925 0.034776674548 
0.033159348516 0.031598886025 0.030098590322 0.028660691554 0.027286483958 0.025976351857 0.024729973451 0.023546306543 0.0224238097 
0.021360580876 0.02035444288 0.019402975205 0.018503612921 0.01765379003 0.040441419129 0.038836575621 0.037247621107 0.035682702149 
0.034149140712 0.03265312307 0.031199995353 0.029793837955 0.028437819983 0.027134157322 0.02588437445 0.024689129432 0.023548517477 
0.022461932376 0.021428385453 0.020446527667 0.019514679619 0.018630984582 0.017793431787 0.016999916011 0.03764758202 0.036217898847 
0.03480008196 0.03340102513 0.032027015785 0.030683617868 0.029375389835 0.028106092358 0.026878664891 0.0256952818 0.02455750145 
0.023466243974 0.022421776709 0.021423914782 0.020471996557 0.019565191966 0.018702216481 0.017881628516 0.017101840315 0.016361261532 
0.035091101901 0.033814434508 0.032546266916 0.031292817567 0.030059403607 0.0288507627 0.027671047294 0.026523645257 0.02541123277 
0.024335986413 0.023299287627 0.02230224505 0.021345358917 0.020428629553 0.019551889402 0.018714366111 0.017915269301 0.017153470162 
0.016427739964 0.015736920692 0.032744381541 0.031601922155 0.030465560993 0.02934050395 0.028231267207 0.027142174007 0.026076832457 
0.025038289715 0.02402906991 0.023051039892 0.022105792975 0.021194356502 0.020317352937 0.019474981611 0.018667306313 0.01789379882 
0.017153982861 0.016446899676 0.01577180883 0.015127684156 0.030587189755 0.029562983889 0.028542880926 0.027531211678 0.026532141476 
0.025549347691 0.02458607239 0.023644967407 0.022728309957 0.021838017496 0.020975494779 0.020141823798 0.019337657352 0.018563473656 
0.017819245847 0.017104872287 0.016419907399 0.015763824073 0.015135973526 0.01453562594 0.028604265122 0.027684321742 0.026766902986 
0.025855852701 0.024954679415 0.024066539655 0.023194289169 0.022340450452 0.021507058066 0.020695855997 0.019908197626 0.019145101675 
0.018407390431 0.017695478963 0.017009545494 0.016349634087 0.015715428136 0.01510663634 0.014522813627 0.013963393275 0.026783000781 
0.025955257201 0.025128840938 0.024306946658 0.02349264847 0.02268885959 0.021898020107 0.021122351876 0.020363756699 0.019623827163 
0.018903827688 0.018204827105 0.017527571276 0.016872519162 0.016240042979 0.015630167075 0.01504283416 0.014477829817 0.013934895135 
0.013413585704 0.025112330972 0.024366098869 0.023620173737 0.022877371902 0.022140399127 0.021411712861 0.020693553517 0.019987912122 
0.019296494472 0.018620728203 0.017961900243 0.017320947128 0.016698605196 0.016095451029 0.015511837792 0.01494790727 0.014403719937 
0.013879183064 0.013374094641 0.012888173492 0.02358140331 0.022907223471 0.022232574699 0.021559945909 0.020891667554 0.020229924041 
0.019576669393 0.01893368993 0.01830255442 0.017684585541 0.017080941781 0.016492542661 0.015920068124 0.015364182595 0.014825208675 
0.014303409667 0.013798859553 0.01331157526 0.012841458332 0.012388331861 0.022179328734 0.021568934378 0.020957485298 0.02034711977 
0.019739939263 0.019137810537 0.018542513047 0.017955654508 0.017378620962 0.016812606917 0.01625877351 0.015717912269 0.015190763075 
0.014677881688 0.014179659711 0.013696365764 0.013228179927 0.012775153119 0.01233728099 0.011914475594 0.020895366919 0.020341458064 
0.019786002459 0.019230969684 0.018678114747 0.018129164661 0.017585666597 0.01704904129 0.016520589652 0.016001427636 0.015492516142 
0.014994682798 0.014508601844 0.014034802107 0.013573745634 0.013125663914 0.01269079202 0.012269248831 0.0118610816 0.011466247316 
0.019719040339 0.019215199291 0.018709514013 0.018203623928 0.017699173313 0.017197655351 0.016700457725 0.016208887218 0.015724067177 
0.015247022594 0.014778676339 0.014319772657 0.013870947419 0.013432747071 0.013005543509 0.012589644598 0.012185300491 0.011792656963 
0.011411819484 0.011042779339 0.018639961436 0.018180625297 0.017719160335 0.017257060642 0.016795790584 0.016336648928 0.015880893215 
0.015429733204 0.014984155604 0.014545092803 0.014113387799 0.013689734055 0.013274739254 0.012868904826 0.012472587355 0.012086121246 
0.011709737998 0.011343636141 0.010987943869 0.010642700044 0.017648031641 0.017228317361 0.016806259004 0.016383219806 0.015960495736 
0.015539312367 0.01512078735 0.0147059194 0.014295683949 0.013890918214 0.01349237318 0.013100689053 0.012716458911 0.012340080415 
0.011971957968 0.011612417267 0.011261690644 0.010919988453 0.010587445818 0.010264146917 0.016733278099 0.016348912366 0.015962078785 
0.015574011404 0.01518589783 0.014798766028 0.014413673995 0.014031544114 0.013653223986 0.013279477026 0.012911006787 0.012548374365 
0.012192123519 0.011842629998 0.011500314757 0.011165458095 0.010838290669 0.010519026143 0.010207825741 0.0099048128978 0.015885965042 
0.015533306984 0.015178095871 0.01482143907 0.014464398636 0.014107976459 0.013753079252 0.013400570044 0.013051148135 0.012705546182 
0.0123643659 0.012028219353 0.011697482819 0.011372621131 0.011053944001 0.010741742219 0.010436254984 0.010137693607 0.0098462239541 
0.0095619890276 0.015096947191 0.014772812785 0.014446075095 0.014117773843 0.013788849577 0.013460198223 0.013132649091 0.012806954677 
0.012483815432 0.012163840303 0.011847625967 0.011535609418 0.011228273933 0.010925981138 0.010629029357 0.010337705927 0.010052241976 
0.0097728376929 0.0094996639365 0.0092328924697 0.014357879067 0.014059579044 0.013758648843 0.013456014871 0.013152592219 0.012849177671 
0.012546530432 0.012245318905 0.011946163483 0.011649632085 0.011356194348 0.01106635765 0.010780500374 0.010498973373 0.010222065497 
0.0099500392659 0.009683121779 0.0094215129968 0.0091653834922 0.0089149076264 0.013661908588 0.013387095143 0.013109661284 0.012830456707 
0.012550298945 0.012269935967 0.011990044203 0.011711222307 0.011434058018 0.011158979429 0.010886513928 0.010617066384 0.010350999718 
0.010088638875 0.0098302739108 0.0095761459647 0.0093264727052 0.0090814486224 0.0088412519724 0.0086060368215 0.046703331045 0.044807244349 
0.042931741918 0.041086367654 0.039279847329 0.037519535084 0.035811720872 0.03416123808 0.032571771522 0.031045835264 0.029585022917 
0.02818995938 0.026860546798 0.025595878324 0.024394675375 0.023255109392 0.022175160527 0.021152434499 0.020184486972 0.01926872918 
0.043484626776 0.041794951558 0.040120759298 0.038470294776 0.03685101104 0.035269455099 0.033731058644 0.032240228437 0.030800451964 
0.029414217818 0.028083211833 0.02680837413 0.025589872031 0.024427322904 0.023319899817 0.022266384846 0.021265216047 0.020314539256 
0.019412433124 0.018556816487 0.040546496966 0.039036955197 0.037538848229 0.036059273395 0.034604844088 0.03318109468 0.031792833526 
0.030444143201 0.029138218642 0.02787745779 0.026663628829 0.0254977262 0.024380259794 0.023311163722 0.022289970507 0.021315849158 
0.020387707911 0.019504121852 0.018663552851 0.017864488361 0.037855629855 0.036503799775 0.035160388742 0.03383147368 0.032522524352 
0.031238508782 0.029983815057 0.028762020525 0.027576067361 0.026428199178 0.025320203413 0.024253197051 0.023227834618 0.022244268605 
0.021302410134 0.020401639406 0.019541254828 0.018720128746 0.017937132907 0.01719108163 0.03538479882 0.03417192255 0.032964938029 
0.031768937672 0.030588853705 0.029429082543 0.028293421218 0.027185168793 0.026106880219 0.025060825281 0.024048665146 0.023071548657 
0.022130182109 0.021225067524 0.020356087307 0.019523092177 0.018725459868 0.017962465594 0.017233281839 0.016536955842 0.033112653136 
0.032022331798 0.030935790279 0.029857663702 0.028792119847 0.027743038541 0.026713745251 0.025707124903 0.024725739011 0.023771553847 
0.022846161105 0.02195069743 0.021086097524 0.020252771897 0.01945087 0.018680390934 0.017940892277 0.017231976057 0.016553004381 
0.015903233501 0.031021738355 0.030039748488 0.029060103773 0.028086587565 0.027122959104 0.026172525851 0.025238361234 0.024323051544 
0.023428849091 0.022557611954 0.021710812444 0.02088968616 0.020095053105 0.01932743193 0.018587187932 0.017874296077 0.017188638227 
0.016529917749 0.015897699628 0.01529142715 0.029097486145 0.028211610093 0.027326686547 0.026446195558 0.025573355148 0.024711103106 
0.023862137788 0.023028775751 0.022213067002 0.021416715774 0.020641181091 0.019887559094 0.019156698589 0.018449255341 0.017765516695 
0.017105710518 0.016469757968 0.015857581203 0.015268819592 0.014703133956 0.027327228532 0.026526532622 0.025725830424 0.02492812256 
0.024136226718 0.023352758626 0.022580081575 0.021820328358 0.021075286327 0.020346590972 0.019635569209 0.018943268724 0.018270569423 
0.017618053452 0.016986142491 0.016375142868 0.015785082633 0.015215938879 0.014667515759 0.014139551451 0.025699103926 0.024974052176 
0.024248207455 0.02352420987 0.022804554769 0.022091516765 0.021387226066 0.020693543332 0.02001217356 0.019344550408 0.018691932935 
0.01805529359 0.0174355026 0.016833201434 0.016248827738 0.015682657136 0.015134838872 0.014605434826 0.014094352656 0.013601458623 
0.024201918989 0.023544075276 0.02288484461 0.022226571718 0.021571397217 0.020921365068 0.020278355225 0.019644026383 0.019019976883 
0.018407511167 0.017807789615 0.017221722619 0.016650134944 0.016093632097 0.015552706352 0.015027675712 0.014518726063 0.014025988584 
0.013549472887 0.013089074675 0.022824784958 0.022226732622 0.021626880548 0.021027184521 0.020429619612 0.019835978289 0.019247959633 
0.018667070314 0.018094681139 0.017532062346 0.016980194005 0.016440001491 0.015912269451 0.015397572319 0.014896406695 0.014409080864 
0.013935875559 0.013476943763 0.013032333843 0.012602016076 0.02155734475 0.02101259177 0.02046563384 0.019918284687 0.019372246275 
0.018829160023 0.018290496371 0.017757630602 0.017231846529 0.016714215935 0.016205720758 0.015707208647 0.015219384525 0.014742849337 
0.014278019223 0.013825295931 0.013384933552 0.012957121304 0.012541974699 0.012139527632 0.020389472289 0.019892246508 0.019392558084 
0.018892026275 0.018392141313 0.017894377657 0.017400100107 0.016910516158 0.016426754591 0.015949856339 0.015480689499 0.01502003142 
0.014568548113 0.014126843055 0.013695284912 0.013274276214 0.012864101389 0.012464977907 0.012077034968 0.011700357596 0.019311404222 
0.018856662514 0.018399261906 0.017940640758 0.017482184601 0.017025206131 0.016570858722 0.016120307109 0.015674557397 0.015234548236 
0.014801071653 0.014374870768 0.013956556819 0.013546620113 0.013145530933 0.012753636731 0.012371241899 0.011998555951 0.011635750358 
0.011282913759 0.018313661095 0.017897002634 0.017477552243 0.017056635703 0.016635427887 0.016215139574 0.015796862543 0.015381596916 
0.014970276338 0.014563751266 0.014162727887 0.013767905733 0.013379815275 0.012999004147 0.012625852656 0.012260712268 0.011903881342 
0.011555590948 0.011216011917 0.010885273093 0.017387315602 0.017004907049 0.016619600512 0.016232596764 0.015845008636 0.015457894804 
0.01507226262 0.014688973013 0.014308891406 0.013932773791 0.013561328974 0.013195159166 0.012834744956 0.01248060278 0.012133103893 
0.011792591959 0.011459345264 0.011133592183 0.010815525437 0.010505297416 0.016524078839 0.016172524597 0.015818055531 0.015461713709 
0.015104534218 0.014747452883 0.014391397299 0.014037178153 0.013685543194 0.013337181523 0.012992757434 0.012652763654 0.012317738932 
0.011988094954 0.011664211714 0.011346406327 0.01103495615 0.010730081901 0.010431984424 0.01014083771 0.01571635126 0.015392748676 