# vtk DataFile Version 5.1
vtk output
ASCII
DATASET STRUCTURED_POINTS
DIMENSIONS 50 50 50
SPACING 0.002 0.002 0.002
ORIGIN 0.2174 -0.052672 0.02732
POINT_DATA 125000
FIELD FieldData 1
potential 1 125000 double
0.0017009022113 0.0017147229019 0.0017286828632 0.0017427758971 0.0017570077908 0.0017713870565 0.0017859177679 0.0018006129799 0.0018154813792 
0.0018305305407 0.0018457675041 0.0018611981601 0.0018768247636 0.0018926487462 0.0019086659898 0.0019248743985 0.0019412673666 0.0019578452646 
0.0019745996556 0.0019915329784 0.0020086429346 0.0020259343002 0.002043415168 0.0020610850706 0.0020789560456 0.0020970377074 0.0021153414611 
0.0021338753038 0.0021526511932 0.0021716762419 0.0021909578158 0.0022105033278 0.0022303190902 0.0022504131523 0.0022707863008 0.0022914423948 
0.0023123895374 0.0023336315037 0.0023551779983 0.002377037854 0.0023991895346 0.0024216857747 0.0024445204244 0.0024676835023 0.002491194066 
0.0025150341051 0.0025392032834 0.002563679721 0.0025884752848 0.0026135716439 0.0017146482595 0.0017286306627 0.0017427563707 0.0017570194705 
0.0017714273477 0.0017859878957 0.001800706017 0.0018155956233 0.0018306611987 0.0018459137484 0.001861358029 0.0018770002112 0.0018928426564 
0.0019088840997 0.0019251211619 0.0019415517723 0.0019581711918 0.001974976154 0.0019919615639 0.0020091280768 0.0020264753443 0.0020440086028 
0.002061734747 0.0020796552695 0.0020977836374 0.0021161280291 0.0021346988988 0.0021535080535 0.0021725662705 0.0021918780652 0.0022114552478 
0.0022313042132 0.0022514271647 0.0022718333002 0.002292525379 0.0023135073623 0.0023347825485 0.0023563595209 0.0023782467115 0.0024004427716 
0.0024229513727 0.0024458175052 0.0024690233782 0.0024925651802 0.002516461452 0.0025406954282 0.0025652652974 0.0025901496409 0.0026153655893 
0.0026408877912 0.001727702703 0.0017418396431 0.001756125532 0.0017705539002 0.001785133851 0.0017998695176 0.001814771157 0.0018298493865 
0.0018451090419 0.0018605603645 0.0018762076834 0.001892055411 0.0019081072017 0.0019243592284 0.0019408109448 0.0019574562054 0.0019742946705 
0.0019913197048 0.0020085303281 0.0020259253409 0.0020435045845 0.0020612787747 0.0020792420514 0.0020974106185 0.0021157899587 0.0021343934916 
0.0021532303861 0.0021723105696 0.0021916478886 0.0022112482868 0.0022311184232 0.0022512657836 0.0022716921767 0.0022924066575 0.0023134114382 
0.002334712571 0.0023563106246 0.0023782181413 0.0024004264754 0.0024229731671 0.0024458231537 0.0024690417514 0.0024926038306 0.0025165118776 
0.0025407757503 0.0025653897209 0.0025903471302 0.0026156228027 0.002641240987 0.0026671701989 0.0017399025797 0.0017541887951 0.0017686262776 
0.0017832140377 0.0017979598249 0.0018128659346 0.0018279458901 0.0018432057257 0.0018586533862 0.001874296299 0.0018901399378 0.0019061873661 
0.0019224411141 0.0019388962909 0.0019555534884 0.0019724094392 0.0019894579138 0.0020066980051 0.0020241264605 0.0020417413995 0.0020595446716 
0.0020775481612 0.0020957476211 0.0021141549603 0.0021327826967 0.0021516401899 0.002170737108 0.0021900867931 0.0022096989147 0.0022295794382 
0.0022497366691 0.0022701768299 0.0022909019179 0.002311917505 0.0023332308943 0.0023548396129 0.0023767401584 0.0023989660475 0.0024215119136 
0.0024443590619 0.0024675681195 0.0024911231364 0.0025150305114 0.0025392839155 0.0025639008842 0.0025888752657 0.0026141903444 0.0026398523052 
0.0026658563047 0.002692176341 0.0017511169061 0.001765547088 0.0017801327076 0.001794872805 0.0018097756881 0.001824846619 0.0018400960697 
0.0018555314015 0.0018711595746 0.0018869864507 0.0019030190365 0.0019192564158 0.0019357039449 0.0019523551349 0.0019692110858 0.0019862669758 
0.0020035180958 0.0020209628752 0.0020385995706 0.0020564273573 0.00207444851 0.0020926740833 0.0021110989576 0.0021297397447 0.0021486054486 
0.002167709842 0.002187062445 0.0022066720054 0.0022265527218 0.0022467082956 0.0022671465468 0.0022878718335 0.0023088861022 0.0023301980534 
0.0023518072816 0.0023737004543 0.0023959210738 0.0024184540338 0.002441311316 0.0024644711506 0.0024880007745 0.0025118776831 0.0025361097263 
0.0025606977813 0.0025856509409 0.0026109690866 0.0026366312123 0.0026626589629 0.0026890182816 0.0027157070854 0.00176126572 0.00177583166 
0.0017905582662 0.0018054435488 0.0018204954923 0.001835724574 0.0018511361356 0.0018667383369 0.0018825377961 0.0018985412736 0.0019147523369 
0.001931173259 0.0019478055483 0.0019646441185 0.0019816880549 0.0019989351119 0.0020163804892 0.0020340216298 0.0020518573487 0.0020698894289 
0.0020881181988 0.0021065557475 0.0021251980269 0.0021440630322 0.0021631608751 0.0021825012264 0.0022020993062 0.0022219635248 0.0022421032832 
0.0022625262238 0.0022832355879 0.0023042378136 0.0023255336927 0.0023471291655 0.002369008428 0.0023912090919 0.0024137211398 0.0024365501653 
0.0024597003956 0.0024831606339 0.0025069913024 0.0025311748334 0.0025557183188 0.0025806211702 0.0026058951818 0.0026315396139 0.0026575310109 
0.0026838988801 0.0027106041962 0.002737646835 0.0017703117118 0.0017850116016 0.0017998689151 0.001814892034 0.0018300874135 0.0018454651253 
0.0018610306791 0.0018767916303 0.0018927547528 0.0019089263752 0.0019253080277 0.0019419025523 0.0019587090812 0.0019757257007 0.0019929504193 
0.0020103788421 0.0020280090737 0.0020458373617 0.0020638637979 0.0020820885415 0.002100515982 0.0021191555065 0.0021380069977 0.0021570874932 
0.0021764077563 0.0021959769358 0.0022158110796 0.0022359179825 0.0022563078216 0.0022769870403 0.0022979600184 0.0023192306379 0.0023407759236 
0.0023626455544 0.0023848196609 0.0024072988867 0.0024300897531 0.0024531998223 0.0024766107396 0.002500379324 0.0025244978572 0.0025489702652 
0.0025738077826 0.002599008789 0.0026245877204 0.0026505394384 0.0026768440308 0.0027035350722 0.0027305689413 0.0027579520867 0.0017782783991 
0.0017930996252 0.0018080848106 0.0018232395856 0.001838572959 0.001854092005 0.0018698020166 0.0018857158034 0.0019018352599 0.0019181646443 
0.0019347083223 0.0019514656894 0.0019684408887 0.0019856264567 0.0020030223939 0.0020206229199 0.0020384278119 0.0020564355167 0.0020746415968 
0.0020930498908 0.0021116658584 0.0021304995988 0.0021495521865 0.0021688390344 0.0021883725994 0.0022081620741 0.0022282237478 0.0022485647191 
0.0022691962096 0.0022901212011 0.0023113468877 0.0023328502318 0.0023546762882 0.0023768094441 0.0023992487797 0.002421993882 0.0024450543555 
0.0024684320816 0.0024921119553 0.0025161535562 0.0025405442705 0.0025652972031 0.0025904143724 0.0026158979231 0.0026417643972 0.0026680105211 
0.0026946135937 0.0027216083724 0.0027489582415 0.0027766591551 0.0017852314208 0.0018001719275 0.0018152799932 0.0018305621011 0.0018460265695 
0.0018616807226 0.0018775322899 0.0018935884556 0.0019098550105 0.0019263358759 0.0019430329159 0.0019599460646 0.0019770787387 0.0019944245806 
0.0020119821974 0.00202974733 0.002047721647 0.0020658961184 0.0020842743441 0.0021028597407 0.0021216568675 0.0021406797765 0.0021599238537 
0.0021794087618 0.0021991478892 0.0022191500515 0.0022394277169 0.0022599937099 0.0022808546844 0.0023020222638 0.0023234658235 0.0023452363975 
0.0023673150782 0.0023896992005 0.0024123936689 0.0024353943433 0.002458707 0.0024823417685 0.0025062821663 0.0025305848177 0.0025552360798 
0.0025802492622 0.0026056316041 0.0026313858069 0.0026575284474 0.0026840532496 0.002710941065 0.002738228134 0.0027658754663 0.0027938838341 
0.0017912909036 0.0018063514017 0.0018215766489 0.0018369824393 0.0018525743732 0.0018683581769 0.0018843449143 0.0019005395748 0.0019169447093 
0.0019335680278 0.0019504098178 0.0019674718471 0.0019847550361 0.0020022540582 0.002019965269 0.0020378881265 0.002056019397 0.0020743565132 
0.0020929019727 0.0021116583695 0.0021306305383 0.0021498343751 0.0021692670855 0.0021889434229 0.0022088787869 0.0022290852195 0.0022495733909 
0.002270357283 0.0022914174299 0.0023128094922 0.0023345086864 0.002356517695 0.0023788359995 0.0024014628637 0.0024243989306 0.0024476466615 
0.0024712086858 0.0024950921487 0.0025192781757 0.0025438311862 0.0025687331549 0.0025939998772 0.0026196388524 0.0026456539317 0.0026720597941 
0.0026988409269 0.002726015743 0.0027535798049 0.0027815157109 0.0028098200841 0.0017966066485 0.0018117810494 0.0018271263319 0.0018426545068 
0.0018583699009 0.0018742839176 0.0018903996433 0.0019067272787 0.001923269753 0.0019400316699 0.0019570130154 0.0019742160561 0.0019916415174 
0.0020092852621 0.0020271448285 0.0020452205158 0.0020635044043 0.0020819975923 0.0021007048896 0.002119626018 0.0021387705337 0.0021581487714 
0.0021777614268 0.0021976239914 0.0022177524685 0.0022381580527 0.0022588511188 0.0022798193381 0.0023011208795 0.0023227336208 0.002344657909 
0.0023668953071 0.002389447162 0.002412308214 0.0024354800614 0.002458966121 0.0024827684359 0.0025068651881 0.0025313174368 0.0025561152024 
0.0025812622878 0.00260677555 0.002632663866 0.0026589307844 0.0026855923328 0.0027126336868 0.0027400761857 0.0027679134029 0.0027961248759 
0.0028247168139 0.001801356986 0.001816649377 0.0018321115496 0.0018477618017 0.0018636028222 0.0018796414681 0.0018958858157 0.0019123432256 
0.001929017879 0.0019459143065 0.0019630319079 0.0019803717236 0.0019979360063 0.0020157207441 0.0020337235879 0.0020519425632 0.0020703749773 
0.0020890237218 0.0021078863517 0.0021269700403 0.0021462814204 0.0021658323251 0.0021856248488 0.0022056711584 0.0022259902673 0.0022465915169 
0.0022674591947 0.0022886600017 0.0023101707687 0.0023319978735 0.0023541424587 0.0023766042129 0.0023993809666 0.0024224704957 0.0024458728543 
0.0024695923001 0.0024936283526 0.0025179621979 0.0025426532061 0.0025676883503 0.0025930769163 0.0026188336496 0.0026449670492 0.0026714852399 
0.0026983977694 0.0027256985219 0.0027534099449 0.0027815067023 0.0028099936268 0.0028388638428 0.0018057373944 0.0018211446963 0.0018367279289 
0.0018524997359 0.0018684661125 0.0018846317494 0.0019010060125 0.0019175921099 0.001934395341 0.0019514206234 0.0019686706282 0.0019861444151 
0.0020038436505 0.0020217659373 0.0020399072516 0.0020582674399 0.0020768466759 0.0020956471895 0.0021146663312 0.0021339119956 0.0021533956338 
0.0021731147845 0.0021930860799 0.0022133182292 0.002233825908 0.0022545938663 0.0022756884526 0.0022970929509 0.002318811107 0.0023408486674 
0.0023632096049 0.002385890601 0.0024088899055 0.0024322030539 0.0024558335482 0.0024797846585 0.0025040515584 0.0025286213423 0.0025535480846 
0.0025788196145 0.0026044485554 0.0026304479718 0.002656828217 0.0026835992754 0.0027107596916 0.0027383182128 0.0027662930288 0.0027946559888 
0.0028234138081 0.0028525641107 0.0018099304645 0.0018254581615 0.0018411652406 0.0018570614701 0.0018731526542 0.0018894456419 0.001905947246 
0.0019226634728 0.0019395960169 0.0019567529752 0.0019741340996 0.0019917395728 0.0020095746606 0.0020276300157 0.0020459089856 0.0020644110237 
0.0020831367412 0.0021020871405 0.0021212622013 0.0021406711446 0.0021603230382 0.0021802174048 0.0022003691912 0.002220756848 0.002241459009 
0.0022624500526 0.0022837456974 0.0023053548802 0.0023272811164 0.002349530324 0.0023721011206 0.0023949990437 0.0024182187642 0.0024417544001 
0.0024656154564 0.0024897942788 0.002514290192 0.0025390975932 0.0025642614908 0.0025897736932 0.0026156467012 0.0026418918174 0.0026685230482 
0.002695547249 0.0027229620441 0.0027507828528 0.0027790197244 0.0028076525403 0.0028366859847 0.0028661152839 0.0018141094825 0.0018297621062 
0.0018455962633 0.001861621111 0.0018778416625 0.0018942664265 0.0019108989785 0.0019277453018 0.0019448093895 0.0019620973669 0.0019796101977 
0.0019973498953 0.0020153171097 0.0020335069526 0.0020519245666 0.0020705696191 0.0020894424493 0.0021085448155 0.0021278814538 0.0021474537674 
0.0021672768528 0.0021873498373 0.002207653502 0.0022282634384 0.0022491596927 0.0022703507372 0.0022918496079 0.0023136641705 0.0023357991826 
0.0023582570859 0.0023810451848 0.0024041605916 0.0024276000339 0.0024513607895 0.0024754468227 0.0024998530031 0.0025245684318 0.0025496343548 
0.0025750418791 0.0026008012775 0.0026269242454 0.0026534241686 0.0026803103988 0.0027075945504 0.0027352712898 0.0027633575231 0.0027918648551 
0.0028207698612 0.0028500844055 0.0028798992881 0.0018184332652 0.0018342161102 0.0018501818607 0.0018663393958 0.0018826938755 0.0018992524657 
0.0019160190658 0.0019329979016 0.0019501969159 0.0019676172809 0.0019852654042 0.0020031395449 0.002021240522 0.0020395695172 0.0020581292019 
0.0020769198063 0.0020959432016 0.0021152020538 0.002134700417 0.0021544423825 0.00217444228 0.0021946625791 0.002215188776 0.0022359950953 
0.0022570902975 0.0022784849438 0.0023001901758 0.0023222153139 0.002344561217 0.0023672359723 0.0023902385681 0.0024135751428 0.0024372366111 
0.0024612260096 0.0024855399409 0.0025101834174 0.0025351386688 0.0025604519627 0.0025861078375 0.0026121215187 0.0026385027281 0.0026652636687 
0.0026924185543 0.0027199681926 0.0027479043874 0.0027762759774 0.0028050640925 0.0028342194392 0.0028638240448 0.0028939688827 0.0018230361529 
0.0018389503787 0.0018550522257 0.0018713468378 0.0018878387155 0.0019045356235 0.0019214407516 0.0019385575348 0.0019558940304 0.0019734536788 
0.0019912363209 0.0020092485025 0.0020274888038 0.0020459616649 0.0020646682821 0.0020836084205 0.0021027874418 0.0021222067486 0.0021418727305 
0.002161791293 0.002181934876 0.0022023789991 0.002223097828 0.0022441066658 0.002265406921 0.0022870104602 0.0023089272562 0.0023311663277 
0.0023537313418 0.0023766247172 0.0023998505187 0.0024234095636 0.0024473000006 0.0024715213507 0.0024960681458 0.0025209525978 0.0025461588901 
0.0025717249199 0.00259764232 0.002623921449 0.0026505719502 0.002677608543 0.0027050365406 0.0027328618951 0.0027610884727 0.0027897059121 
0.0028187843933 0.002848272468 0.0028781777825 0.0029086326062 0.0018280153053 0.0018440677119 0.0018603097927 0.0018767474881 0.0018933826545 
0.0019102215179 0.0019272682123 0.0019445286942 0.0019620080301 0.001979710459 0.0019976355392 0.0020157909223 0.0020341781105 0.0020527996546 
0.0020716558222 0.0020907516684 0.0021100912598 0.002129678294 0.0021495187644 0.0021695814342 0.0021899492912 0.0022105889792 0.002231512686 
0.002252724021 0.0022742358141 0.0022960555251 0.0023181887501 0.0023406501831 0.0023634378672 0.0023865582453 0.0024100089438 0.0024337985052 
0.0024579227308 0.0024823851989 0.0025071775562 0.0025323127333 0.0025577757517 0.002583603604 0.002609790887 0.0026363454547 0.0026632758415 
0.0026905955617 0.0027183130402 0.0027463978091 0.0027749223114 0.0028038739037 0.0028332567707 0.0028630511701 0.0028934070102 0.0029240517263 
0.0018334531625 0.0018496496991 0.0018660372123 0.0018826202876 0.0018994020684 0.0019163882618 0.001933583458 0.0019509920848 0.0019686202458 
0.0019864679834 0.0020045450783 0.0020228505292 0.0020413894054 0.0020601648087 0.0020791813565 0.0020984406447 0.0021179476977 0.0021376707445 
0.0021576933663 0.0021779811374 0.0021985457717 0.0022193879429 0.0022405174735 0.0022619439086 0.0022836721032 0.0023057140084 0.0023280734057 
0.0023507630618 0.0023737809435 0.002397130809 0.0024208185944 0.0024448431918 0.0024692149659 0.0024939227692 0.0025189695431 0.0025443461234 
0.0025700925438 0.0025961980767 0.0026226662444 0.0026495059445 0.002676727127 0.0027043457781 0.0027323290585 0.0027607557331 0.0027895923116 
0.0028188588782 0.0028485613257 0.0028786822271 0.0029093692823 0.0029403464875 0.0018394053306 0.0018557495819 0.0018722867406 0.0018890225314 
0.0019059545005 0.0019230927848 0.001940443111 0.0019580052378 0.0019757857151 0.001993790385 0.0020120222767 0.0020304865089 0.0020491840107 
0.0020681222957 0.0020873049703 0.0021067359106 0.0021263809605 0.0021463257115 0.0021665370423 0.0021870202101 0.0022077889175 0.00222883966 
0.0022501833411 0.0022718300908 0.0022937835048 0.0023160525646 0.0023386481924 0.0023615715777 0.0023848256322 0.0024084146644 0.0024323496964 
0.0024566253114 0.0024812453211 0.0025062081355 0.0025315210909 0.0025571689248 0.0025831934571 0.0026095829037 0.0026363437875 0.0026634825063 
0.0026909793478 0.0027189061007 0.0027472399888 0.0027759902675 0.0028051503308 0.0028347560875 0.0028647870281 0.0028952516342 0.0029262887283 
0.0029576210747 0.0018459104131 0.0018624068982 0.001879097761 0.0018959865522 0.0019130762577 0.0019303735835 0.0019478803482 0.0019656039039 
0.0019835458006 0.002001714272 0.0020201086106 0.0020387369807 0.0020576035864 0.0020767124977 0.0020960703012 0.0021156396036 0.0021355111689 
0.0021556477738 0.002176055822 0.0021967438668 0.0022177253557 0.0022389886522 0.0022605550123 0.0022824299731 0.0023046143029 0.0023271246983 
0.002349957779 0.0023731234743 0.002396620892 0.0024204616694 0.0024446478631 0.0024691813738 0.0024940629819 0.0025192950963 0.0025448832661 
0.0025708139385 0.0025971275085 0.0026238143154 0.0026508810205 0.0026782977293 0.0027061452698 0.0027343992113 0.0027630653872 0.0027921538464 
0.0028216514253 0.0028516025205 0.0028819879701 0.0029129477827 0.0029442204342 0.0029760159036 0.0018529874531 0.0018696390296 0.001886487999 
0.0019035368245 0.0019207900462 0.0019382490381 0.0019559231006 0.0019738117072 0.0019919231705 0.0020102600411 0.0020288275599 0.0020476277771 
0.0020666718345 0.0020859609569 0.0021054599922 0.0021252591156 0.0021453268334 0.0021656646357 0.0021862793096 0.0022071781775 0.0022283771691 
0.002249866648 0.0022716604759 0.0022937683918 0.0023161973213 0.0023389480208 0.0023620289622 0.0023854435907 0.0024091998931 0.0024332980504 
0.0024577479071 0.002482546891 0.0025076990868 0.0025332129732 0.002559087875 0.0025853129354 0.0026119280962 0.0026388908926 0.0026662720022 
0.0026940491079 0.00272223471 0.0027508243878 0.0027798321873 0.002809274716 0.0028391276081 0.0028694451219 0.0029002021135 0.0029315411267 
0.0029632892642 0.0029953973904 0.0018606506719 0.0018774620004 0.0018944739683 0.0019116876251 0.0019291080422 0.0019467391101 0.0019645820999 
0.0019826447228 0.0020009317965 0.0020194444713 0.002038191552 0.0020571753077 0.0020764053126 0.0020958389147 0.0021155757933 0.0021355727948 
0.0021558426026 0.0021763885721 0.0021972181276 0.0022183395007 0.0022397614727 0.0022614831476 0.0022835161714 0.0023058668774 0.0023285409406 
0.0023515412625 0.002374879474 0.0023985560157 0.0024225762419 0.0024469421724 0.0024716642877 0.0024967420218 0.0025221774074 0.0025479794886 
0.0025741519624 0.0026006832201 0.0026275781238 0.0026548987869 0.0026826120111 0.0027107293875 0.002739255895 0.0027681996071 0.0027975687158 
0.0028273824684 0.0028576143593 0.0028883079264 0.0029194512671 0.002951286294 0.002983349003 0.0030158759401 0.0018689030012 0.0018858789308 
0.0019030596917 0.0019204457695 0.0019380389202 0.0019558442262 0.0019738659987 0.0019921098278 0.0020105766183 0.0020292742589 0.0020482082793 
0.0020673849715 0.0020867602551 0.0021064381427 0.0021263763317 0.0021465822454 0.0021670649456 0.0021878289969 0.0022088820768 0.0022302320225 
0.0022518894133 0.0022738508881 0.0022961279232 0.002318727613 0.0023416559558 0.0023649175002 0.002388519522 0.0024124648014 0.0024367557965 
0.0024614009455 0.0024864069164 0.0025117731334 0.0025375046358 0.0025636100938 0.0025900414018 0.0026169063797 0.0026441616332 0.0026718134496 
0.0026998732103 0.0027283398892 0.0027572283133 0.0027865400438 0.0028162833553 0.0028464806885 0.0028771054227 0.0029081984737 0.0029399856821 
0.0029720082638 0.0030045004487 0.003037462879 0.0018777465125 0.0018948948438 0.0019122482031 0.0019298103745 0.001947584864 0.0019655713935 
0.0019837752268 0.0020022043469 0.0020208602359 0.0020397494555 0.0020588791378 0.00207820581 0.0020978310076 0.0021177172856 0.0021378683671 
0.0021582913692 0.0021789946981 0.0021999861255 0.0022212705896 0.0022428592637 0.0022647613748 0.0022869717382 0.0023095029612 0.0023323594644 
0.0023555494546 0.0023790778743 0.0024029503246 0.0024271747471 0.0024517494565 0.0024766808217 0.0025019796203 0.0025276449018 0.0025536859196 
0.0025800707917 0.0026068576652 0.0026340535609 0.0026616441523 0.0026896462616 0.002718064692 0.0027468967016 0.0027761558095 0.0028058508106 
0.00283598821 0.0028665845537 0.0028976181545 0.0029292261824 0.0029613499152 0.0029938075347 0.00302674199 0.0030601701863 0.0018871891856 
0.0019045132852 0.0019220453077 0.0019397897654 0.0019577490924 0.0019759225407 0.0019943173297 0.0020129363593 0.0020317890965 0.0020508816643 
0.0020701665102 0.0020897491117 0.0021095848902 0.0021296890467 0.0021500604316 0.002170709698 0.0021916452223 0.0022128723979 0.0022343990681 
0.0022562310299 0.0022783855959 0.00230084693 0.0023236391218 0.0023467640539 0.0023702275641 0.0023940279507 0.0024181831153 0.0024426923972 
0.0024675579972 0.002492788177 0.0025183906744 0.0025443321771 0.0025706900071 0.0025974311478 0.0026245533431 0.002652093135 0.0026800390266 
0.0027083983899 0.0027371837427 0.0027663949838 0.0027960435349 0.0028261359404 0.0028566801345 0.0028876825361 0.0029192553844 0.0029512046518 
0.0029837770039 0.0030166926498 0.003050096129 0.0030840076056 0.0018972277152 0.0019147356099 0.0019324531145 0.0019503865978 0.0019685347132 
0.0019869024906 0.0020054949715 0.002024314799 0.0020433714563 0.00206261758 0.0020821618097 0.0021019586459 0.002122018063 0.0021423470565 
0.0021629485127 0.0021838319202 0.0022050069198 0.0022264804948 0.0022482577582 0.0022703443982 0.0022927535038 0.0023154843315 0.0023385467546 
0.0023619457483 0.0023856851549 0.0024097736256 0.0024342149668 0.0024590190978 0.0024841880147 0.0025097263715 0.0025356084933 0.0025619028158 
0.0025885888573 0.0026156675609 0.0026431380156 0.0026710338631 0.0026993431939 0.0027280770841 0.0027572437688 0.0027868494642 0.0028169015541 
0.0028474073513 0.0028783844893 0.0029099090841 0.002941826691 0.0029743733635 0.0030072685566 0.0030406644592 0.0030745599656 0.0031089709052 
0.0019078685881 0.0019255614804 0.0019434696964 0.0019615945938 0.0019799407283 0.0019985100172 0.0020173070021 0.0020363345124 0.0020555489875 
0.002075060418 0.002094825009 0.0021148488555 0.0021351351348 0.0021556981232 0.0021765392212 0.0021976665917 0.002219091065 0.0022408177914 
0.0022628540699 0.0022852068738 0.0023078821008 0.0023308881938 0.0023542293873 0.0023779101408 0.0024019351071 0.0024263192104 0.0024510573517 
0.0024761651195 0.0025016140869 0.002527470966 0.0025537067794 0.0025803326699 0.0026073588206 0.0026347852984 0.0026626124927 0.0026908726833 
0.0027195611534 0.0027486793208 0.002778243157 0.0028082590334 0.0028387300815 0.0028696651771 0.0029011835349 0.0029330597714 0.0029654402139 
0.002998460994 0.0030318439535 0.0030657402066 0.0031001443518 0.0031350855311 0.0019191129242 0.0019370007887 0.0019551053148 0.0019734302535 
0.0019919798557 0.0020107563818 0.0020297641358 0.0020489532581 0.002068437867 0.0020881712759 0.0021081629022 0.0021284196365 0.0021489453342 
0.0021697495809 0.0021908385847 0.0022122219672 0.0022339041678 0.0022558957661 0.002278200738 0.0023008218296 0.0023237808906 0.0023470654178 
0.0023706925909 0.0023946628981 0.0024189911654 0.0024436757071 0.0024687225907 0.0024941116708 0.002519908899 0.0025460876099 0.0025726569793 
0.0025996273329 0.0026270001231 0.0026547751739 0.0026829859853 0.0027116247439 0.0027407018232 0.0027702219484 0.0028001980358 0.002830637016 
0.002861542265 0.0028930276954 0.0029249019095 0.0029572462186 0.002990108199 0.0030236310587 0.0030575130632 0.003091931634 0.003126871383 
0.0031623633183 0.0019309730251 0.0019490600265 0.0019673681816 0.0019859013589 0.0020046599876 0.0020236497641 0.0020428218669 0.0020622852694 
0.0020819947624 0.0021019597234 0.0021221868806 0.0021426838852 0.0021634560773 0.002184512339 0.0022058595962 0.0022275047965 0.0022494570569 
0.0022717224807 0.0022942991501 0.0023172108347 0.0023404550174 0.0023640326277 0.0023879516721 0.0024122234491 0.0024368524536 0.002461846451 
0.0024871790709 0.0025129190719 0.0025390446765 0.0025655590238 0.0025924709909 0.0026197917377 0.0026475276275 0.0026756759111 0.0027042674716 
0.0027332963588 0.0027627766112 0.002792711343 0.0028231136754 0.0028539905986 0.0028854555568 0.0029172966215 0.0029496476991 0.0029824810207 
0.0030159882581 0.0030498827824 0.003084294434 0.0031192561689 0.0031547573112 0.0031908168576 0.0019434569783 0.0019617504814 0.001980269548 
0.0019990151566 0.0020179923447 0.0020371490215 0.0020565970372 0.0020762886203 0.0020962320932 0.0021164355416 0.0021368957469 0.0021576426469 
0.0021786694797 0.0021999868035 0.0022216001777 0.0022435239687 0.002265753449 0.0022882986783 0.0023111653578 0.0023343620541 0.0023579021154 
0.0023817783905 0.0024059998206 0.0024305806355 0.0024554920021 0.0024808066107 0.0025064928923 0.0025325620885 0.0025590257313 0.0025858821583 
0.0026131471507 0.0026408301784 0.0026689427919 0.0026974708772 0.0027264549025 0.0027558908648 0.002785785475 0.0028161502141 0.0028469920374 
0.0028784305415 0.0029102532846 0.0029425781228 0.0029754236182 0.0030087650276 0.0030427969175 0.0030772388555 0.0031122032497 0.0031477259042 
0.0031838139434 0.0032204710395 0.0019565641924 0.0019750692894 0.0019938064717 0.0020127745881 0.0020319194839 0.0020513569886 0.0020710350778 
0.0020909627774 0.002111147199 0.0021315979174 0.0021523209312 0.0021733284967 0.0021946183171 0.0022162057147 0.0022380971174 0.0022602995317 
0.0022828140679 0.0023056529163 0.0023288156331 0.0023523136651 0.0023761540612 0.0024003362707 0.0024248727376 0.002449740154 0.0024750049081 
0.0025006441224 0.002526660461 0.0025530662986 0.0025798739471 0.0026070877485 0.0026347175541 0.0026627756439 0.0026912684277 0.0027201909976 
0.0027495794097 0.0027794327095 0.0028097575658 0.0028405645631 0.0028719735933 0.0029037696409 0.002936078613 0.0029689029338 0.0030022634081 
0.003036132235 0.0030707073031 0.0031056994012 0.0031412328297 0.0031773471617 0.0032140392303 0.0032513219689 0.0019703209959 0.0019890455428 
0.0020080047186 0.0020271431257 0.0020465737005 0.0020662452136 0.0020861611152 0.0021063367101 0.0021267715803 0.002147476272 0.0021684588817 
0.0021897281251 0.0022112934526 0.0022331604555 0.0022553375631 0.0022778303428 0.0023006427782 0.0023237794526 0.002347249847 0.0023710565837 
0.0023952075274 0.0024197054978 0.0024445335826 0.0024697574576 0.0024953501151 0.0025213203752 0.0025476768166 0.0025744307741 0.0026015928529 
0.0026291710779 0.0026571760184 0.0026856138877 0.0027144998432 0.0027438281946 0.0027736330097 0.0028039176146 0.0028346862164 0.0028660654368 
0.0028978324405 0.0029301160017 0.00296292657 0.0029962658078 0.003030149589 0.0030645660398 0.003099710908 0.0031352855613 0.003171427764 
0.0032081557952 0.0032454829929 0.0032831943859 0.0019847155553 0.0020036655753 0.0020227971699 0.0020422238792 0.0020618965512 0.0020818088005 
0.0021019705354 0.0021223923192 0.0021430837041 0.0021640499208 0.0021852996311 0.0022068467074 0.0022286943995 0.0022508501255 0.002273322595 
0.0022961160739 0.0023192366757 0.002342680408 0.0023664661937 0.0023905883535 0.0024150626958 0.0024398532358 0.0024650418 0.0024905959611 
0.0025165237818 0.0025428326979 0.0025695413921 0.0025966508647 0.0026241764704 0.0026521244312 0.0026805126893 0.0027093447787 0.0027386316643 
0.0027683792992 0.0027986150182 0.002829341935 0.0028606837315 0.0028924196369 0.0029246724985 0.002957450079 0.0029907761061 0.0030246659491 
0.0030590963539 0.0030942319494 0.0031298186536 0.0031659966481 0.0032027639892 0.0032401299536 0.0032778925073 0.0033165017243 0.0019997380726 
0.0020188655127 0.0020382899072 0.0020579562975 0.0020778681097 0.0020980287352 0.0021184434616 0.0021391224674 0.0021600762562 0.0021813119416 
0.0022028399289 0.0022246700545 0.0022468090652 0.0022692642092 0.0022920405037 0.0023151453328 0.0023385761058 0.0023623437139 0.0023864496386 
0.0024108974511 0.0024356701479 0.0024608283191 0.0024863487278 0.0025122404517 0.0025385096747 0.0025651706979 0.0025922361337 0.0026197101564 
0.0026476061864 0.0026759369174 0.0027047157699 0.0027339498802 0.0027636517531 0.0027938289952 0.0028245070659 0.0028556877458 0.0028874920759 
0.0029197125949 0.0029524650521 0.0029857697596 0.0030196307739 0.0030540714562 0.0030890767075 0.0031248035937 0.0031609970077 0.0031978068149 
0.0032352239646 0.0032730224126 0.0033116915536 0.0033510009149 0.0020153665193 0.002034727347 0.0020543925304 0.0020743047139 0.0020944647528 
0.0021148792344 0.0021355548898 0.002156497152 0.0021777205571 0.0021992339307 0.0022210473386 0.0022431696632 0.0022656089541 0.0022883706249 
0.0023114599004 0.0023348814534 0.0023586380038 0.0023827313069 0.0024071385855 0.0024319215992 0.0024570617255 0.0024825589488 0.0025084159678 
0.0025346548747 0.0025612770557 0.0025882970593 0.002615723085 0.0026435717976 0.0026718480921 0.0027005674505 0.0027297464411 0.0027593950404 
0.0027895138269 0.0028201305075 0.002851262446 0.0028830263748 0.002915205032 0.0029479208352 0.0029811889973 0.0030150292848 0.0030494337398 
0.003084442703 0.0031200376325 0.00315637764 0.0031932091408 0.0032306604352 0.0032685111854 0.0033072272308 0.0033466046327 0.0033866341823 
0.0020314858752 0.0020511488378 0.0020710609531 0.0020912246094 0.00211164094 0.0021323142175 0.0021532543793 0.0021744685916 0.0021959672198 
0.0022177645643 0.0022398752603 0.0022622990145 0.0022850451018 0.0023081184063 0.0023315311521 0.0023552780659 0.0023793660758 0.0024037679856 
0.0024285406371 0.0024536656082 0.0024791515539 0.0025049882177 0.0025311992983 0.0025577903802 0.0025847697407 0.0026121526126 0.0026399493925 
0.0026681763594 0.0026968429243 0.002725959816 0.0027555412121 0.0027856070851 0.0028161621944 0.0028472387136 0.002878952327 0.002911076805 
0.0029437482533 0.0029769738022 0.003010766997 0.0030451506408 0.0030801249821 0.0031157226616 0.0031519257799 0.003188888939 0.0032263699575 
0.0032642427669 0.0033030181572 0.003342444167 0.0033825461897 0.0034232131179 0.0020481494435 0.0020680631688 0.0020882269132 0.0021086456486 