# vtk DataFile Version 5.1
vtk output
ASCII
DATASET STRUCTURED_POINTS
DIMENSIONS 20 20 20
SPACING 0.005 0.005 0.005
ORIGIN 0.2189 -0.051172 0.02882
POINT_DATA 8000
FIELD FieldData 1
potential 1 8000 double
0.00033874663381 0.00033564071975 0.00033258313385 0.00032958322544 0.00032665145935 0.00032378769189 0.00032098436498 0.00031823105362 0.0003155221165 
0.00031285930968 0.00031024956149 0.00030769878708 0.00030520942953 0.00030277949303 0.00030040517337 0.00029808754266 0.00029580889082 0.00029357087816 
0.00029137098638 0.00028920324186 0.00034154961251 0.00033838984962 0.00033527790188 0.00033222569112 0.00032924456945 0.00032633612789 0.00032349335768 
0.0003207050213 0.00031796420127 0.00031527133703 0.00031263159083 0.00031005155533 0.00030753439479 0.00030507902871 0.0003026802793 0.00030033188204 
0.00029803219005 0.00029576369718 0.00029353010511 0.00029132806364 0.00034347490542 0.00034027541417 0.00033712291624 0.00033403056187 0.00033101089446 
0.00032806735213 0.00032519352132 0.00032237862094 0.0003196141599 0.00031689798793 0.00031423402462 0.00031162868446 0.00030908622148 0.00030660557527 
0.00030418367212 0.000301810687 0.00029948281906 0.00029718215831 0.00029491289206 0.0002926749635 0.00034445498062 0.00034123059175 0.0003380533662 
0.00033493592418 0.000331891746 0.00032892482545 0.00032602993168 0.00032319641223 0.00032041471822 0.0003176808378 0.0003149968878 0.00031236996611 
0.00030980485606 0.00030730112964 0.00030485489047 0.00030245623736 0.00030009964069 0.00029776774806 0.00029546473095 0.00029319333421 0.00034468230193 
0.00034144613674 0.00033825796937 0.0003351320878 0.00033207595544 0.00032909621907 0.00032618795783 0.00032334131446 0.00032054557782 0.00031779676573 
0.00031509671787 0.00031245057861 0.0003098642287 0.00030733682983 0.00030486455565 0.00030243819732 0.00030004752027 0.00029769255268 0.00029536060768 
0.00029306158762 0.00034452067683 0.0003412817827 0.00033809340166 0.00033496730679 0.00033190941471 0.00032892304413 0.00032600516094 0.00032314685587 
0.00032033815802 0.00031757543472 0.00031485978351 0.00031219585835 0.00030958797694 0.00030703534198 0.00030453492789 0.00030207883797 0.0002996598244 
0.00029727832937 0.00029492237106 0.00029260134357 0.00034435595043 0.00034111516237 0.00033792809681 0.0003348044017 0.00033174614853 0.00032875602022 
0.00032582929442 0.00032295777459 0.00032013474626 0.00031735698498 0.00031462536328 0.00031194315664 0.00030931241959 0.00030673349361 0.00030420344048 
0.00030171687965 0.00029926981944 0.00029686349093 0.00029448639694 0.00029214573364 0.00034447869455 0.00034122962529 0.00033804006021 0.00033491432663 
0.00033185191332 0.00032885366206 0.00032591527001 0.00032302936994 0.00032019069878 0.00031739487436 0.00031464531775 0.0003119429981 0.00030928855761 
0.00030668258087 0.00030412281771 0.00030160694931 0.00029913199534 0.00029670106498 0.00029430286185 0.00029194354517 0.00034505412651 0.0003417885133 
0.00033858534827 0.00033544690917 0.00033237523932 0.00032936343304 0.00032640854084 0.00032350409472 0.000320645512 0.00031783076571 0.00031506007783 
0.00031233541774 0.00030965625065 0.00030702332067 0.00030443501104 0.00030189070301 0.00029938861636 0.00029692710823 0.00029451175943 0.00029213100184 
0.00034614986379 0.00034285817623 0.00033963224323 0.00033647293896 0.00033337980949 0.00033034685437 0.00032736990813 0.0003244423273 0.0003215606109 
0.00031872294122 0.00031592918321 0.00031317963065 0.00031047507516 0.00030781526903 0.00030519980016 0.00030262785471 0.00030009802075 0.00029761111263 
0.00029517077436 0.00029276589741 0.00034778478673 0.0003444585453 0.00034120102868 0.00033801023892 0.00033488712395 0.00033182455288 0.00032881845205 
0.00032586252887 0.00032295427599 0.00032008936727 0.00031726962861 0.00031449451434 0.00031176403259 0.00030907737079 0.00030643442151 0.00030383520098 
0.00030127810069 0.00029876419397 0.00029629743865 0.00029386613861 0.00034996048439 0.00034659150054 0.00034329270027 0.00034006241139 0.00033690135958 
0.00033380185611 0.00033076047019 0.00032777123796 0.0003248305201 0.00032193600821 0.0003190886023 0.00031628610607 0.00031352941899 0.0003108168153 
0.0003081474256 0.00030552009553 0.00030293541815 0.00030039280383 0.00029789737909 0.00029543759784 0.00035267635269 0.00034925669223 0.00034590774113 
0.00034262918977 0.00033942190275 0.00033627881876 0.00033319671325 0.00033016968151 0.0003271940995 0.00032426686656 0.00032138910496 0.00031855910514 
0.00031577697584 0.0003130390499 0.00031034331508 0.00030768921398 0.00030507519642 0.00030250271571 0.00029997177023 0.00029748606711 0.00035592351325 
0.00035244494459 0.00034903753921 0.00034570201169 0.00034244134558 0.00033924893139 0.00033612194468 0.00033305384538 0.00033003991406 0.0003270782742 
0.00032416893841 0.00032131159844 0.0003185042626 0.00031574282166 0.0003130238929 0.00031034239769 0.00030769973244 0.00030509550277 0.00030253141271 
0.00030001239757 0.00035966111422 0.00035611455784 0.00035263948535 0.00034924027376 0.00034591860502 0.00034267537721 0.00033950103901 0.00033638946217 
0.00033333548427 0.00033033813822 0.00032739654687 0.00032451220433 0.000321681723 0.00031889926702 0.00031615756213 0.00031345217456 0.00031077958619 
0.00030814248287 0.00030554261165 0.00030298735494 0.00036377140009 0.00036015009203 0.00035660095628 0.00035313246834 0.00034974853368 0.00034645081967 
0.00034322752937 0.00034007174471 0.00033697727571 0.00033394329955 0.000330969958 0.00032805938427 0.00032520680574 0.00032240497549 0.00031964336897 
0.00031691353413 0.00031421239488 0.0003115417969 0.0003089041362 0.00030630985826 0.00036801322589 0.00036431391731 0.00036068913262 0.00035715054465 
0.00035370471202 0.00035035315393 0.00034708258213 0.00034388424316 0.00034075187591 0.00033768296043 0.00033467983748 0.00033174272373 0.00032886760665 
0.00032604506569 0.00032326283608 0.00032050967183 0.00031777974442 0.00031507411734 0.00031239927649 0.00030976032708 0.0003720154394 0.00036824347371 
0.00036454760991 0.00036094366802 0.00035744012724 0.00035403882551 0.00035072541825 0.00034749058367 0.00034432484853 0.00034122592673 0.00033819466965 
0.00033523082637 0.00033233068882 0.00032948383702 0.00032667740586 0.00032389825271 0.00032114009722 0.00031840258773 0.0003156922909 0.00031301580795 
0.00037535868442 0.0003715244074 0.00036776885983 0.00036410938673 0.00036055684892 0.00035711241187 0.00035376408019 0.00035050011796 0.00034730893341 
0.00034418551503 0.00034112881066 0.00033813821816 0.00033520963968 0.00033233323064 0.00032949757158 0.00032669035412 0.00032390466904 0.00032113916951 
0.00031839910719 0.00031569071581 0.00037772564802 0.00037384394594 0.0003700429266 0.00036634163371 0.00036275125041 0.00035927445787 0.00035589901162 
0.00035261297197 0.00034940255717 0.00034625893338 0.00034317815765 0.00034015991336 0.00033720027328 0.00033429150092 0.00033142369343 0.00032858714056 
0.00032577574347 0.00032298708331 0.00032022374709 0.00031749016811 0.00038700976293 0.00038355751761 0.00038016012811 0.00037681994188 0.00037354297513 
0.00037032991592 0.00036717780329 0.00036408185102 0.00036103987437 0.00035805176808 0.00035511930501 0.00035224524144 0.00034943037721 0.00034667359731 
0.00034397191406 0.00034132851437 0.00033872722748 0.00033617022854 0.00033365493084 0.00033117724817 0.00038958204645 0.00038608002065 0.00038263391476 
0.00037924680501 0.00037592544263 0.00037267088349 0.00036948049411 0.00036634898776 0.0003632735952 0.00036025314139 0.00035728938558 0.00035438478277 
0.00035154038448 0.00034875523758 0.00034602526385 0.00034334833896 0.00034072434351 0.00033813770106 0.00033559153819 0.00033308357011 0.0003916161604 
0.00038807299565 0.00038458643531 0.00038116003431 0.00037780091624 0.00037451091751 0.00037128777296 0.0003681260157 0.00036502127199 0.00036197250523 
0.00035898076391 0.00035604816067 0.00035317565283 0.00035036224331 0.00034760543413 0.00034490040453 0.00034224704731 0.00033962966434 0.00033705196644 
0.00033451271779 0.00039307686259 0.00038950141087 0.00038598347169 0.00038252676503 0.00037913831835 0.00037582006268 0.00037256984564 0.00036938231644 
0.00036625273439 0.00036317955537 0.00036016229508 0.00035720343975 0.0003543045391 0.00035146390683 0.00034867981616 0.00034594645924 0.00034326313154 
0.00034061541067 0.00033800678414 0.00033543729825 0.00039406633099 0.00039046654287 0.00038692470337 0.0003834477071 0.00038003689551 0.00037669666246 
0.0003734243259 0.00037021493259 0.00036706343975 0.00036396780922 0.0003609275727 0.00035794428324 0.00035501956865 0.0003521518835 0.00034933946255 
0.00034657711341 0.00034386429506 0.00034118736192 0.00033854973787 0.00033595229142 0.00039478722727 0.00039116854418 0.0003876091849 0.0003841158706 
0.00038068890013 0.00037733012357 0.00037403848572 0.00037080914827 0.00036763703163 0.00036451986257 0.00036145730689 0.00035845020726 0.00035549980442 
0.00035260460764 0.00034976344728 0.00034697132274 0.00034422410793 0.00034152416994 0.00033885909006 0.00033623581731 0.00039546989987 0.0003918328709 
0.00038825791991 0.00038475003334 0.00038130800344 0.00037793323901 0.00037462324194 0.00037137361919 0.00036818001772 0.0003650411877 0.00036195583482 
0.00035892443028 0.00035594764514 0.00035302480792 0.00035015402637 0.00034733228153 0.00034455575945 0.00034182829913 0.00033913750858 0.00033648927214 
0.00039631221551 0.00039265511481 0.00038906223127 0.0003855377889 0.00038207841026 0.00037868522109 0.00037535507085 0.00037208431074 0.00036886907362 
0.00036570608588 0.00036259679064 0.00035954078158 0.00035653677418 0.00035358565599 0.00035068503985 0.00034783350943 0.00034502827234 0.00034227304887 
0.0003395567143 0.00033688436359 0.0003974524375 0.00039376936024 0.00039015311544 0.0003866068871 0.00038312664231 0.00037971129026 0.0003763578175 
0.00037306293017 0.00036982291884 0.00036663575617 0.00036350057028 0.00036041786792 0.00035738644265 0.00035440630908 0.00035147637363 0.00034859535495 
0.00034576111709 0.00034297263233 0.00034023522053 0.00033753707053 0.00039896847476 0.00039525376464 0.00039160820096 0.00038803211009 0.0003845255047 
0.00038108270286 0.00037770263507 0.00037438031075 0.00037111296336 0.00036789866047 0.00036473634588 0.00036162581138 0.0003585654531 0.00035555670681 
0.00035259717006 0.00034968644213 0.00034682355117 0.00034400657003 0.00034124130171 0.0003385160192 0.0004008981787 0.00039714578859 0.00039346464213 
0.00038985328477 0.00038631279313 0.00038283730522 0.00037942441876 0.00037607034384 0.00037277299126 0.00036952854841 0.00036633732781 0.00036319768801 
0.00036010902247 0.00035707044841 0.00035408181077 0.00035114187785 0.0003482490521 0.00034540332155 0.00034260937365 0.0003398551218 0.00040325417022 
0.00039945728908 0.00039573368458 0.00039208112476 0.00038850101528 0.00038498720312 0.00038153763081 0.00037814823406 0.00037481646101 0.00037153941321 
0.00036831799247 0.00036514814235 0.00036203028898 0.00035896315235 0.00035594537426 0.00035297505008 0.00035005267775 0.00034717650197 0.00034435208296 
0.00034156785759 0.0004060299992 0.00040218321101 0.00039841022017 0.00039471030596 0.00039108495272 0.00038752761105 0.00038403715217 0.00038060945779 
0.00037724158486 0.00037393027146 0.00037067578361 0.00036747504799 0.00036432854982 0.00036123281559 0.00035818562804 0.00035518618565 0.00035223292829 
0.00034932541864 0.00034646440797 0.0003436530202 0.0004092000395 0.00040529727736 0.00040146941508 0.00039771629089 0.00039404054027 0.00039043583121 
0.0003869010862 0.00038343194907 0.00038002582549 0.00037667881293 0.00037339076863 0.00037015938349 0.00036698337543 0.00036385998942 0.00036078475129 
0.00035775568843 0.0003547717636 0.00035183183305 0.00034893726907 0.0003460926716 0.00041270317225 0.00040873969476 0.00040485172157 0.00040104153483 
0.00039730901724 0.00039365615956 0.00039007505804 0.00038656370381 0.00038311745524 0.0003797338238 0.00037641203304 0.00037315009795 0.00036994568658 
0.00036679394591 0.00036369120541 0.0003606333401 0.00035761836957 0.00035464580711 0.00035171669967 0.00034883672288 0.0004164266981 0.00041239884899 
0.00040844719858 0.00040457625701 0.00040078776624 0.00039708382815 0.00039345559835 0.000389900643 0.00038641441855 0.00038299427462 0.0003796384237 
0.0003763461238 0.00037311340414 0.00036993496856 0.00036680512225 0.0003637183782 0.00036067237551 0.00035766710912 0.00035470260822 0.00035178606217 
0.00042018870784 0.00041609551417 0.00041208029822 0.00040814889761 0.00040430464338 0.00040055010776 0.00039687608413 0.00039327906741 0.00038975415163 
0.0003862986484 0.00038291003184 0.00037958722085 0.00037632585808 0.000373119867 0.00036996269842 0.00036684741293 0.00036377055684 0.00036073107008 
0.00035773163174 0.00035477376571 0.00042375430302 0.00041959884843 0.00041552290063 0.00041153447497 0.00040763781401 0.00040383550279 0.0004001187852 
0.00039648304477 0.00039292253613 0.00038943326615 0.00038601316702 0.00038265974745 0.00037936890574 0.00037613395723 0.00037294787489 0.0003698029187 
0.00036669542504 0.00036362382716 0.00036059007539 0.00035759637446 0.00042688244887 0.00042267125613 0.00041854138439 0.00041450153822 0.00041055836975 
0.00040671286314 0.00040295843715 0.00039928820773 0.00039569573582 0.00039217547362 0.00038872474187 0.00038534046928 0.00038201893802 0.00037875322772 
0.00037553625623 0.00037236119003 0.00036922360975 0.00036612178168 0.00036305705936 0.0003600309902 0.00042940042442 0.00042514232439 0.00042096755156 
0.00041688526272 0.0004129020965 0.00040901995143 0.00040523224288 0.00040153158466 0.00039790985015 0.00039436123885 0.00039088027629 0.0003874649586 
0.00038411120025 0.000380813502 0.00037756464658 0.00037435914587 0.00037119271334 0.0003680632975 0.00036497043233 0.00036191595177 0.00043561579941 
0.00043180592155 0.00042805401012 0.00042436384469 0.00042073696984 0.00041717446 0.0004136748114 0.00041023591161 0.00040685678765 0.00040353697517 
0.000400276279 0.00039707574576 0.00039393494154 0.00039085313746 0.00038782793179 0.00038486298926 0.00038194362637 0.0003790729242 0.00037624774216 
0.00037346547329 0.00043812907911 0.00043426912475 0.00043047191904 0.00042673643948 0.00042306656029 0.00041946298806 0.00041592475041 0.00041244909776 
0.00040903458706 0.00040568030389 0.00040238652196 0.00039915329965 0.00039598091012 0.00039286826988 0.00038981183019 0.00038681685085 0.00038386742033 
0.00038096625047 0.0003781105996 0.00037529883786 0.00044030985234 0.0004364069113 0.00043256788756 0.00042879152283 0.00042508294125 0.00042144216422 
0.00041786852748 0.00041435937592 0.00041091205009 0.00040752569129 0.00040420040833 0.00040093649247 0.00039773309367 0.00039458977565 0.00039150331467 
0.00038847230479 0.00038549779445 0.00038256547109 0.00037967923482 0.00037683703894 0.00044213856651 0.00043819783819 0.00043432188322 0.00043051063373 
0.00042676801577 0.00042309457253 0.00041948915924 0.00041594900234 0.00041247155768 0.00040905580848 0.00040570082364 0.00040240696988 0.00039917374895 
0.00039599966616 0.00039288367348 0.00038982207828 0.00038681664177 0.00038385362618 0.00038093643591 0.00037806443135 0.00044367230909 0.00043969889448 
0.00043579032851 0.00043195054282 0.00042817785574 0.00042447517498 0.00042084125866 0.00041727266289 0.00041376730464 0.00041032358687 0.00040694025861 
0.00040361756668 0.00040035499632 0.0003971509495 0.000394004554 0.00039091211589 0.00038787614093 0.00038488225161 0.00038193510383 0.00037903397933 
0.00044502961764 0.00044102668649 0.00043708984513 0.00043322312748 0.00042942421694 0.00042569480566 0.00042203378524 0.00041843888503 0.00041490626954 
0.00041143523703 0.00040802438019 0.00040467322097 0.00040138129537 0.0003981472618 0.0003949701135 0.00039184678163 0.00038877443079 0.00038575587262 
0.00038277957126 0.0003798501972 0.00044635254472 0.00044232047639 0.00043835676924 0.00043446454052 0.00043064024286 0.00042688584977 0.00042319872965 
0.00041957677044 0.00041601702746 0.00041251857439 0.00040907974778 0.00040570000417 0.00040237811315 0.00039911410132 0.00039590580389 0.00039275168014 
0.00038964858934 0.00038659997012 0.00038359495967 0.00038063774324 0.0004477743273 0.00044371298109 0.00043972120816 0.0004358018509 0.00043195120238 
0.0004281700152 0.00042445570341 0.000420806642 0.0004172195795 0.00041369196223 0.00041022464722 0.00040681575359 0.00040346389171 0.00040016915545 
0.00039692988299 0.00039374446723 0.0003906106177 0.00038753245215 0.00038449816349 0.00038151296156 0.00044940070019 0.00044530607725 0.00044128293534 
0.000437333658 0.00043345434998 0.00042964380978 0.00042590068454 0.00042222206122 0.00041860573803 0.00041504907314 0.00041155148412 0.00040811240614 
0.00040472980749 0.00040140414935 0.00039813366239 0.00039491690602 0.00039175221559 0.00038863823212 0.00038558011914 0.0003825659897 0.00045130050997 
0.0004471687804 0.00044311046478 0.00043912557794 0.00043521404016 0.00043137121121 0.00042759633262 0.00042388591781 0.00042023791735 0.00041665032756 
0.00041312231054 0.0004096517273 0.00040623773054 0.00040288086356 0.00039957869459 0.00039633038453 0.0003931346199 0.00038999000384 0.00038690173401 
0.00038385778009 0.00045351280785 0.0004493398324 0.00044524238061 0.00044121798098 0.00043726943364 0.00043339011723 0.00042957908583 0.000425833915 
0.00042215271609 0.00041853204532 0.00041497140697 0.00041146899223 0.00040802356068 0.0004046344211 0.00040130076998 0.00039802078306 0.00039479338804 
0.00039161771098 0.00038849834681 0.00038542354796 0.00045605275937 0.00045183363642 0.00044769155179 0.00044362447331 0.00043963406257 0.00043571433158 
0.00043186446702 0.00042808175993 0.0004243637964 0.00042070779196 0.00041711420872 0.00041357900256 0.00041010147842 0.00040668078471 0.00040331485013 
0.00040000286208 0.00039674346224 0.00039353540857 0.00039038408763 0.00038727767387 0.00045891230381 0.0004546428688 0.00045045188437 0.00044633698061 
0.00044230104324 0.00043833734458 0.00043444575377 0.00043062313716 0.00042686721154 0.00042317485664 0.00041954587612 0.00041597676864 0.00041246754135 
0.00040901463222 0.0004056171933 0.0004022731486 0.00039898102768 0.0003957402755 0.00039255083447 0.00038941565997 0.00046206205153 0.000457738607 
0.00045349417302 0.000449328383 0.00044524300626 0.00044123267627 0.00043729640987 0.00043343187665 0.00042963632518 0.00042590650818 0.00042224181725 
0.00041863842916 0.00041509608435 0.0004116125757 0.00040818318245 0.00040480693528 0.00040148227436 0.00039820758829 0.00039498378701 0.00039181495165 
0.00046544316894 0.00046106255597 0.00045676215365 0.00045254248097 0.00044840476642 0.00044434540644 0.00044036334011 0.00043645565257 0.00043261944105 
0.00042885185919 0.00042515086095 0.00042151411073 0.00041793854196 0.00041442214427 0.000410961353 0.00040755360798 0.00040419600684 0.00040088794957 
0.00039762912163 0.00039442493439 0.00046896293373 0.00046452315429 0.00046016442934 0.00045588885417 0.00045169645659 0.00044758947339 0.00044356081153 
0.00043960953488 0.00043573246601 0.00043192675133 0.00042818885688 0.0004245182043 0.00042091075856 0.00041736273328 0.00041387052266 0.00041042988537 
0.00040703930138 0.00040369745022 0.00040040372327 0.00039716332428 0.00047249030994 0.00046799147501 0.00046357487416 0.00045924334365 0.00045499857578 
0.00045084245742 0.00044676822228 0.00044277459912 0.00043885708954 0.00043501356363 0.00043124014125 0.00042753547643 0.0004238949956 0.00042031518577 
0.00041679120983 0.00041331850829 0.0004098947973 0.00040651821208 0.00040318969728 0.0003999086843 0.0004758743922 0.00047131824378 0.00046684595453 
0.00046246116184 0.00045816600187 0.0004539628059 0.00044984498508 0.00044581014385 0.00044185436611 0.00043797403833 0.00043416557893 0.00043042664435 
0.00042675329733 0.00042314096989 0.00041958445054 0.00041607918277 0.00041262250824 0.00040921284673 0.00040584932395 0.00040253295736 0.00047897078704 
0.00047436163225 0.00046983780755 0.00046540310965 0.00046106139013 0.00045681437242 0.00045265532668 0.00044858212847 0.00044458992606 0.00044067398329 
0.00043683088111 0.00043305793426 0.00042935094703 0.00042570513994 0.0004221157193 0.00041857791451 0.00041508871024 0.00041164651167 0.00040825031349 
0.00040490047901 0.0004816805715 0.00047702371269 0.00047245384754 0.000467974985 0.00046359091163 0.00045930307148 0.0004551062632 0.00045099732183 
0.00044696994753 0.00044301997299 0.0004391423729 0.00043533519022 0.0004315941315 0.00042791410229 0.00042429112705 0.00042072092218 0.000417200067 
0.00041372678376 0.00041029990705 0.00040691887162 0.00048441384049 0.00048023815877 0.0004761265474 0.0004720803212 0.00046810050408 0.00046418747563 
0.00046034039073 0.0004565579614 0.00045284008059 0.00044918556595 0.00044559432406 0.00044206600443 0.0004385995993 0.00043519428203 0.00043184783183 
0.00042856514477 0.00042533123379 0.00042214979733 0.00041901847153 0.00041593483101 0.00048696462902 0.00048273880133 0.00047858130506 0.00047448958735 
0.00047046633591 0.00046651127077 0.00046262416034 0.00045880313896 0.00045504782639 0.00045135693049 0.00044773018168 0.00044416694207 0.00044066673694 
0.00043722805093 0.0004338483111 0.00043053302096 0.00042726728284 0.00042405442042 0.00042089175476 0.00041777777502 0.00048931230144 0.00048504074819 
0.00048083937259 0.00047670514288 0.00047264079267 0.00046864623007 0.00046472089288 0.0004608635485 0.00045707208293 0.00045334610578 0.00044968493526 
0.00044608794855 0.00044255402953 0.00043908243325 0.00043566990868 0.00043231664273 0.00042902415842 0.00042577910779 0.0004225847631 0.00041944022587 
0.00049144496505 0.00048713163337 0.00048288902844 0.00047871544588 0.00047461297413 0.00047058148479 0.00046662014931 0.00046272789079 0.00045890235465 
0.0004551425815 0.00045144828224 0.00044781807819 0.00044425132697 0.00044074607389 0.00043730189464 0.00043391591781 0.0004305909669 0.00042731373644 
0.00042408787037 0.00042091244387 0.00049339695218 0.00048904450493 0.00048476445156 0.00048055404491 0.00047641580503 0.0004723497814 0.00046835479179 
0.00046442882166 0.00046057045558 0.00045677843715 0.00045305159217 0.00044938894297 0.00044578947873 0.00044225153498 0.00043877462986 0.00043535558089 
0.00043199839465 0.00042868897443 0.00042543184401 0.00042222592532 0.00049523971481 0.00049085006804 0.00048653247208 0.00048228962274 0.00047811784428 
0.00047401834488 0.00046999033525 0.00046603230339 0.00046214158643 0.00045831759788 0.00045455850433 0.00045086348684 0.00044723165401 0.0004436609551 
0.00044015109007 0.00043669963805 0.00043330428361 0.00042996814999 0.00042667981932 0.00042344363579 0.00049706289825 0.00049263642937 0.00048828414512 
0.00048400757586 0.00047980316107 0.00047567144401 0.0004716113533 0.00046762063323 0.00046369766565 0.0004598415542 0.00045605042968 0.000452323034 
0.00044865786735 0.00044505469334 0.00044151156759 0.00043802723281 0.00043459921239 0.00043123102117 0.00042791152937 0.00042464494804 0.00049895679899 
0.00049449379783 0.00049010580515 0.00048579476346 0.0004815564562 0.00047739189466 0.0004732989831 0.00046927570247 0.0004653195324 0.00046143082562 
0.0004576069121 0.00045384664067 0.0004501486631 0.0004465122387 0.00044293598383 0.00043941859874 0.00043595762452 0.00043255761231 0.0004292064329 
0.00042590920361 0.00050099836435 0.00049649599482 0.00049207049129 0.00048772360718 0.00048344994677 0.00047925021585 0.00047512274179 0.00047106570431 
0.00046707697384 0.00046315386248 0.00045929631809 0.00045550257297 0.00045177058019 0.00044810085623 0.00044449111258 0.00044094013905 0.00043744650011 
0.00043400855831 0.00043063095696 0.00042730213162 0.00050324227327 0.00049869824482 0.00049423207111 0.00048984408997 0.00048553416469 0.00048129760533 
0.00047713413212 0.00047304122066 0.00046901710795 0.00046505917509 0.00046116731832 0.0004573391227 0.00045357334551 0.00044986953365 0.00044622590378 
0.0004426413951 0.00043911449408 0.00043564363967 0.00043223358079 0.00042887281141 0.00050572210437 0.0005011333059 0.00049662439177 0.00049219366806 
0.00048784292647 0.00048356618737 0.00047936317805 0.00047523250529 0.00047117170716 0.00046717802513 0.00046325058135 0.00045938735316 0.00045558712785 
0.00045184888543 0.00044817119639 0.00044455267409 0.00044099189674 0.00043748793017 0.00043404470582 0.00043065135115 0.00050845109324 0.00050381458628 
0.00049925901377 0.00049478300955 0.00049038817106 0.00048606889784 0.00048182494493 0.00047765388059 0.00047355372599 0.00046952229818 0.0004655588513 
0.00046166015152 0.00045782498944 0.00045405205554 0.00045033984886 0.00044668692025 0.00044309200699 0.00043955401774 0.00043607727741 0.00043264971712 
0.00051142267361 0.00050673456575 0.00050212928428 0.00049760478394 0.00049316335544 0.00048879889942 0.00048451137813 0.0004802988241 0.00047615854135 
0.00047208794889 0.00046808685524 0.00046415219066 0.00046028149681 0.00045647374648 0.00045272709536 0.00044903965448 0.00044541006994 0.00044183731841 
0.00043832101737 0.00043486410964 0.00051460920789 0.0005098673262 0.00050520949235 0.00050063398337 0.00049614326806 0.00049173149405 0.00048739845829 
0.00048314246093 0.00047896112969 0.00047485109707 0.00047081139426 0.00046683907359 0.00046293301506 0.0004590912603 0.00045530982875 0.00045158805278 
0.00044792338959 0.00044431511126 0.00044076333718 0.0004372711234 0.00051796160544 0.00051316397098 0.00050845145259 0.00050382367664 0.00049928141044 
0.00049482093535 0.00049044153495 0.00048614122263 0.00048191760851 0.00047776732521 0.00047368929264 0.00046968010075 0.00046573803219 0.00046186001065 
0.00045804413865 0.00045428783052 0.00045058847094 0.00044694544712 0.00044335755131 0.00043982912374 0.00052140877803 0.0005165542434 0.00051178610841 
0.00050710441565 0.00050250860697 0.00049800053321 0.00049357446344 0.0004892295711 0.00048496337615 0.00048077281897 0.00047665589646 0.00047260990654 
0.00046863177413 0.00046471863145 0.00046086771522 0.00045707602387 0.00045334217748 0.00044966328076 0.00044603944172 0.00044247468867 0.00052485844212 
0.00051994765067 0.00051512371585 0.00051038831444 0.00050574103745 0.00050118413378 0.00049671155673 0.00049232304399 0.00048801444485 0.00048378406134 
0.00047962795955 0.00047554504462 0.00047153057851 0.00046758228369 0.00046369636475 0.00045986954873 0.00045609992873 0.00045238537546 0.0004487260629 
0.00044512526695 0.00052821268971 0.00052324632487 0.00051836851767 0.00051358089735 0.00050888422055 0.00050427915901 0.0004997609638 0.00049532890581 
0.0004909793331 0.00048670939557 0.00048251523651 0.00047839451419 0.00047434416378 0.00047036027834 0.00046643880306 0.00046257694274 0.00045877229168 
0.00045502269855 0.0004513271077 0.00044768550153 0.0005313809662 0.00052636200585 0.00052143286476 0.00051659481205 0.00051185061145 0.00050719981566 
0.00050263838 0.00049816457905 0.00049377507556 0.00048946587839 0.00048523344716 0.00048107573819 0.00047698867061 0.00047296865189 0.00046901178619 
0.00046511479945 0.0004612753037 0.00045749122487 0.00045376093863 0.0004500846831 0.00053430432945 0.00052923621418 0.00052425906995 0.00051937477388 
0.00051458503436 0.00050989084507 0.00050528767217 0.00050077346035 0.00049634517496 0.00049199734385 0.00048772722185 0.00048353204579 0.00047940851612 
0.00047535174164 0.0004713591609 0.00046742735512 0.000463553466 0.00045973562435 0.00045597240333 0.00045226263568 0.00053330098342 0.00052875622297 
0.00052428112911 0.0005198758935 0.00051554128972 0.0005112764783 0.00050708189994 0.00050295596647 0.00049889863978 0.00049490873854 0.00049098596795 
0.00048712936945 0.00048333806219 0.00047961067481 0.00047594537589 0.00047234687465 0.00046880106612 0.00046531204166 0.00046187730778 0.0004584947314 
0.00053594608505 0.00053134996958 0.00052682748505 0.00052237565288 0.00051799563967 0.00051368779632 0.00050945092765 0.00050528411385 0.00050118717578 
0.00049715878012 0.0004931980117 0.00048930458596 0.00048547692107 0.00048171376146 0.00047801302295 0.00047437997165 0.0004708006345 0.00046727801327 
0.00046381069569 0.00046039634599 0.00053847156012 0.00053382748436 0.00052925861691 0.00052476160267 0.0005203381606 0.00051598805123 0.00051171024462 
0.00050750387791 0.0005033680712 0.00049930184698 0.00049530415472 0.00049137394079 0.00048751011937 0.00048371162921 0.00047997599042 0.00047630279919 
0.00047269467894 0.00046913851836 0.00046563820803 0.0004621919764 0.00054087113343 0.00053618037927 0.00053156691892 0.0005270269497 0.00052256175405 
0.00051817071448 0.00051385335992 0.0005096087837 0.00050543514537 0.0005013315311 0.00049729723844 0.00049333104948 0.00048943156012 0.0004855969893 
0.0004818269256 0.00047811917642 0.00047447697847 0.00047088704713 0.00046735353369 0.00046387494721 0.00054316441524 0.00053842998119 0.00053377421202 
0.00052919155328 0.00052468595565 0.00052025598391 0.00051590037027 0.00051161802367 0.00050740712052 0.00050326726871 0.00049919725024 0.00049519521223 
0.00049126008503 0.00048739025031 0.00048358494015 0.00047984245536 0.00047616564466 0.00047254224228 0.00046897546835 0.0004654648894 0.00054539639352 
0.00054061931816 0.00053591993468 0.0005312996526 0.00052675464791 0.00052228574121 0.00051789276608 0.00051357312059 0.00050932597878 0.00050515004431 
0.00050104386746 0.00049700597198 0.00049303545832 0.00048913008425 0.00048528979363 0.00048151256618 0.00047779577158 0.00047414348114 0.00047054377622 
0.00046700092973 0.00054762585414 0.00054280598286 0.00053806539162 0.00053340525503 0.000528821785 0.00052431523696 0.00051988479164 0.00051552794657 
0.00051124425302 0.00050703214323 0.00050289012827 0.0004988164041 0.00049480981641 0.00049086902906 0.00048699347145 0.0004831809825 0.00047942940852 
0.00047574315648 0.0004721101233 0.00046853447971 0.00054991257421 0.00054505051491 0.00054026827912 0.00053556788545 0.00053094511789 0.0005264002546 