# vtk DataFile Version 5.1
vtk output
ASCII
DATASET STRUCTURED_POINTS
DIMENSIONS 20 20 20
SPACING 0.005 0.005 0.005
ORIGIN 0.2189 -0.051172 0.02882
POINT_DATA 8000
FIELD FieldData 1
potential 1 8000 double
0.03716361263 0.037185646972 0.037208601045 0.037233714867 0.037263032266 0.037296588677 0.037333988113 0.037374291155 0.037417041177 
0.037462761613 0.037512467242 0.037567089928 0.037626602368 0.037691172874 0.037760074096 0.037833026182 0.037908888595 0.03798720504 
0.038067822179 0.03814950388 0.036886268984 0.036907827039 0.036929822319 0.036953959406 0.036982277167 0.03701525913 0.037052474958 
0.037092901362 0.037136081601 0.037182365259 0.037232448323 0.037287427678 0.037347393622 0.037412548133 0.037482045965 0.037555312251 
0.03763133846 0.037709059005 0.037788575394 0.037869067822 0.036547831602 0.036569382033 0.036590993524 0.036614623187 0.036642446371 
0.036675090398 0.03671210007 0.03675275275 0.036796439067 0.036842965958 0.036893331005 0.036948191992 0.037008244825 0.03707311927 
0.037142697398 0.037215608601 0.037290721709 0.037366993882 0.037444295277 0.037522726579 0.036138112228 0.036160375415 0.036182220378 
0.03620629642 0.036234114821 0.036266610681 0.036303659003 0.036344478174 0.036388473425 0.036435318574 0.03648566403 0.036540039271 
0.036599426006 0.036663564419 0.036732103636 0.036803562311 0.03687684108 0.036950825889 0.037025592882 0.037101263397 0.035677145686 
0.035700868987 0.035724083989 0.035749332602 0.035777867534 0.035810720064 0.035847894641 0.035888805368 0.035932799985 0.03597951286 
0.036029340895 0.036083047156 0.036141314004 0.036203884483 0.036270535212 0.036339891514 0.036410579768 0.036482077671 0.036554220914 
0.036627165745 0.035205086838 0.035230539025 0.035256224012 0.035283331323 0.035313279616 0.035346827726 0.035384265126 0.035425134293 
0.035468805887 0.035515161646 0.035564395605 0.035617199809 0.035673967951 0.035734490061 0.035798586821 0.035865096846 0.035933052982 
0.03600209558 0.036071844391 0.036142550457 0.034764499434 0.034792080947 0.034820157593 0.034849441337 0.034880999863 0.034915586782 
0.034953320791 0.034994039624 0.035037370806 0.035083283541 0.035131987046 0.035183858868 0.03523892754 0.035297428495 0.035358820486 
0.035422463927 0.035487797138 0.035554597652 0.035622263137 0.035691229501 0.03438689408 0.034416542736 0.034446721061 0.034478052172 
0.034511140906 0.034546652237 0.034584794543 0.034625520736 0.034668745793 0.034714268676 0.034762511552 0.034813556659 0.034867223641 
0.034923825297 0.034982898749 0.035044150408 0.035107261515 0.035171977113 0.035238103601 0.035305750822 0.034090155833 0.034121086394 
0.034152804624 0.034185618988 0.034220024692 0.034256387414 0.03429501086 0.034335876745 0.034378927047 0.034424512499 0.034472452786 
0.034522884699 0.034575565513 0.034630771886 0.034688125756 0.034747673918 0.034809047356 0.034872050781 0.034936807444 0.035003184495 
0.033880497535 0.033912221186 0.033944930015 0.033978796444 0.034014128067 0.034051156423 0.0340902282 0.034131378292 0.034174634551 
0.03422039629 0.034268189603 0.034318324504 0.034370486583 0.034424837861 0.034481234068 0.03453958197 0.034599761081 0.034661581661 
0.034725212526 0.034790407254 0.033758936389 0.033791090255 0.033824367581 0.033858829045 0.03389473764 0.033932312078 0.03397181578 
0.034013384419 0.034057146068 0.034103033147 0.034151145368 0.03420138155 0.034253444492 0.034307557371 0.034363587036 0.034421381582 
0.034480717205 0.034541769758 0.03460458449 0.03466886712 0.033724903942 0.033757140545 0.033790595183 0.033825345009 0.033861624323 
0.033899599896 0.033939584442 0.033981588695 0.034025949747 0.034072410546 0.034121081576 0.034171788536 0.034224313652 0.034278774836 
0.034334939534 0.03439273971 0.034451808736 0.03451238873 0.034574691016 0.034638350398 0.033777955511 0.033809967515 0.033843210704 
0.033877938446 0.033914338298 0.033952672807 0.033993165099 0.034035788673 0.034080933382 0.034128191622 0.034177748604 0.034229310437 
0.034282995905 0.034338501702 0.034395545215 0.034453632399 0.034512864761 0.034573413828 0.034635387901 0.034698841896 0.033917274208 
0.033948672405 0.033981346734 0.034015656519 0.034051987056 0.03409060043 0.034131626692 0.034175136809 0.034221153396 0.03426949073 
0.034320297135 0.03437335051 0.034428880406 0.034486050052 0.034544467713 0.034603554184 0.034663511048 0.03472444146 0.034786478879 
0.034849735498 0.034138945797 0.034169200508 0.034200774983 0.034234313018 0.034270427433 0.034309422271 0.03435111725 0.034395565449 
0.03444265212 0.034492331815 0.03454473999 0.034599790918 0.034657646335 0.034717380568 0.03477788078 0.034838761185 0.034899888347 
0.034961384545 0.035023635367 0.035086965628 0.034431102396 0.03445982868 0.034489909088 0.034522426343 0.034558189593 0.034597532121 
0.034640062374 0.034685709355 0.034733938577 0.034785102679 0.034839476247 0.03489702999 0.03495776978 0.035020291685 0.035083586313 
0.035146762339 0.035209460968 0.035271854065 0.035334445769 0.035397883992 0.034769238647 0.034796108042 0.034824523215 0.034855956473 
0.034891384521 0.034931027991 0.03497453703 0.035021425567 0.03507118498 0.035124063147 0.035180587934 0.035240599529 0.035304172223 
0.035369639012 0.035435856328 0.035501472637 0.035565935429 0.035629381478 0.035692494018 0.035756025632 0.035114929265 0.035140180392 
0.035167127217 0.035197588426 0.035232714324 0.035272841073 0.035317335702 0.035365700364 0.03541716654 0.035472006991 0.03553067371 
0.035592842394 0.035658571305 0.035726346668 0.035794826932 0.035862420542 0.035928575829 0.035993073618 0.036056881228 0.036120521085 
0.035425350275 0.035449062572 0.035475025912 0.035504823353 0.035539699977 0.03558022717 0.035625774804 0.035675611167 0.035728907864 
0.035785602463 0.035846034144 0.035909710998 0.035976547344 0.036045381012 0.036114908903 0.036183673801 0.036250934965 0.036316442288 
0.036380957406 0.036444790005 0.035667138088 0.035690286699 0.035715771259 0.035745261685 0.035780298354 0.035821150367 0.03586747725 
0.035918588606 0.035973322832 0.036031422706 0.036092600214 0.036156669992 0.036223504723 0.036292091284 0.036361397626 0.036430251196 
0.036497953369 0.036564103467 0.036629378629 0.036693761294 0.042779468728 0.042810353205 0.042842531925 0.042876416006 0.04291351811 
0.042953947814 0.042997831203 0.043044912303 0.043095115764 0.043148765425 0.043206234841 0.043268132115 0.043334253764 0.043404907117 
0.043479484701 0.043557980632 0.0436395212 0.043723589886 0.043810109793 0.04389811107 0.04238856039 0.042419410805 0.042451255042 
0.042484810735 0.042521658062 0.042561854973 0.042605785283 0.042653026347 0.042703487686 0.042757404756 0.042815071297 0.04287706924 
0.042943307132 0.043014022913 0.043088575333 0.043166817671 0.043248076498 0.043331492453 0.043417108638 0.043504256645 0.041981859321 
0.042012817706 0.042044323345 0.042078118132 0.042114851809 0.042155203998 0.042199155609 0.042246562569 0.042297236599 0.04235114325 
0.042408878131 0.04247068115 0.042536841012 0.042607053216 0.042681392886 0.042759022991 0.042839363037 0.042921682987 0.043005797486 
0.043091640415 0.041552559182 0.041584012179 0.041615960868 0.041650037813 0.04168697114 0.041727403489 0.041771503659 0.041818990899 
0.041869780851 0.041923845332 0.041981538154 0.042042865178 0.042108486514 0.042178012053 0.042251432442 0.04232778934 0.042406661922 
0.042487349914 0.042569821947 0.042653873723 0.041110019361 0.04114238101 0.041175150079 0.041210022342 0.041247546736 0.041288323619 
0.04133258844 0.041380200206 0.041431000501 0.041484945317 0.041542157087 0.041603030232 0.041667791125 0.041736158005 0.041808174327 
0.041883111507 0.041960195202 0.042039017672 0.042119634681 0.042201715302 0.04067557787 0.040708817185 0.040743146855 0.040779121996 
0.040817510653 0.040858850607 0.040903388413 0.040951075877 0.041001746462 0.041055422262 0.041112234691 0.041172385479 0.04123609598 
0.041303040156 0.041373398927 0.041446386738 0.041521476383 0.041598602078 0.041677268114 0.04175751163 0.040273895744 0.040308398045 
0.040344109518 0.040381363676 0.040420770905 0.040462820821 0.040507704069 0.040555479766 0.040605970607 0.040659361319 0.040715697027 
0.040775103944 0.040837724665 0.040903233282 0.040971788376 0.041042946415 0.041116099017 0.041191487099 0.041268369407 0.041347025784 
0.03992580706 0.039961740666 0.039998744264 0.040037275558 0.040077645839 0.040120398738 0.040165646165 0.040213554242 0.040264070705 
0.040317158703 0.040373083031 0.040431896901 0.040493281776 0.040557678341 0.040624640215 0.040694096767 0.040765708409 0.04083936168 
0.040914868896 0.04099227899 0.039646198564 0.039683044112 0.039721070209 0.039760601484 0.039801845948 0.039845225671 0.039890908096 
0.039939016546 0.03998945411 0.0400426661 0.04009828685 0.040156569139 0.040217249843 0.040280607947 0.040346385367 0.040414592741 
0.040484844789 0.040557037499 0.040631273087 0.040707406164 0.039442563732 0.039480042534 0.039518811652 0.039559033201 0.039601036271 
0.039644928711 0.039691028756 0.039739382864 0.039790034638 0.039843340715 0.039898897072 0.039956984218 0.040017174055 0.04007992713 
0.040144945842 0.040212159337 0.040281449288 0.040352640653 0.040425807252 0.040500880116 0.039318301442 0.039356184767 0.039395375793 
0.039436100016 0.039478557774 0.039522911143 0.039569390006 0.039618116905 0.039669058086 0.039722576953 0.039778393621 0.039836504795 
0.039896656004 0.03995918281 0.040023912054 0.040090675484 0.040159259985 0.040229712106 0.040302191301 0.040376357784 0.039274211648 
0.039312166974 0.039351597037 0.039392573536 0.039435337708 0.039480062727 0.039526931905 0.039575989006 0.039627564457 0.039681411103 
0.039737659631 0.03979612045 0.039856609006 0.039919369213 0.039984166304 0.040050889286 0.04011919599 0.040189201181 0.040261183306 
0.040334786944 0.039309373954 0.039347256089 0.039386577052 0.039427609245 0.039470540835 0.039515525842 0.039562814358 0.039612380694 
0.039664597186 0.039719073099 0.03977599272 0.03983501502 0.039896399953 0.0399599443 0.040025384543 0.040092227537 0.040160631123 
0.040230541128 0.040302203532 0.040375547987 0.039421178717 0.039458665499 0.039497674012 0.039538500195 0.039581451936 0.039626689638 
0.039674339645 0.039724565599 0.039777515519 0.039832831881 0.039890723494 0.039950818322 0.040013411658 0.040078032983 0.040144466061 
0.040212021999 0.040280909498 0.040351109357 0.040422739829 0.040495910783 0.039603433439 0.03964031634 0.039678739223 0.03971915906 
0.039761972567 0.039807501165 0.039855634273 0.039906556501 0.039960324281 0.040016698939 0.040075788595 0.040137292808 0.040201510609 
0.040267803819 0.040335408924 0.04040410276 0.040473766244 0.040544405025 0.040616248967 0.040689381675 0.03984473325 0.039880810106 
0.039918404437 0.039958244009 0.040000900112 0.040046665319 0.040095329792 0.040147173158 0.040201774329 0.040259274572 0.040319764195 
0.04038301836 0.040449000911 0.040517012299 0.040586266685 0.040656358006 0.040727063871 0.040798372093 0.040870482623 0.040943700709 
0.04012676604 0.040161860539 0.040198584651 0.040237846212 0.040280288903 0.040326188886 0.040375515124 0.04042819483 0.040483866031 
0.040542644133 0.040604574924 0.0406694271 0.04073727199 0.040806902258 0.040877885455 0.040949405837 0.041021229285 0.041093255381 
0.041165750592 0.041239003959 0.040425457342 0.040459621643 0.040495541756 0.040534273275 0.040576572389 0.040622703765 0.040672633086 
0.040726201584 0.040782968104 0.040842956604 0.040906335063 0.040972548405 0.041041697576 0.041112736364 0.041185056442 0.041257778963 
0.041330601895 0.041403281995 0.041476210474 0.041549425474 0.040716815863 0.040749941174 0.040785267287 0.040823554675 0.040865641017 
0.040912024521 0.040962501804 0.041016909416 0.041074663113 0.041135663379 0.041200103933 0.041267213391 0.041337079774 0.0414088823 
0.041481898018 0.041555349217 0.041628815745 0.04170207173 0.041775403377 0.041848567092 0.040982799393 0.041015547817 0.0410505471 
0.041088841429 0.041130843384 0.04117735365 0.041228189278 0.041283142486 0.041341490607 0.04140325083 0.041467956471 0.041535303029 
0.04160522151 0.04167701387 0.041750034762 0.041823613618 0.041897337087 0.041970871952 0.042044601873 0.042118048785 0.048391065198 
0.048429663481 0.048469514257 0.048511203924 0.048555728313 0.048603198924 0.048653909421 0.048707914559 0.048765301125 0.048826343903 
0.048891183979 0.048960212522 0.049033232342 0.049110440409 0.049191444354 0.049276278892 0.049364294028 0.04945507675 0.049548490113 
0.049643790691 0.047909677645 0.047948325106 0.047988402027 0.048030131188 0.048074747148 0.048122281079 0.048173148866 0.048227372951 
0.048284945896 0.048346128288 0.048411051949 0.048480024085 0.048552890878 0.048629922879 0.048710516233 0.048794937742 0.048882328614 
0.048972451113 0.049064907415 0.0491594181 0.047441894747 0.047480780348 0.047520706821 0.047562851976 0.047607693098 0.047655472929 
0.047706493794 0.047760912873 0.047818647743 0.047879814372 0.047944547493 0.048013272938 0.04808594876 0.04816254897 0.048242606456 
0.048326220446 0.048412823175 0.048501879501 0.0485932663 0.048686769694 0.046982499429 0.047021795207 0.047062091215 0.047104572773 
0.047149609165 0.047197634519 0.047248894657 0.047303350326 0.047361141505 0.047422292565 0.047487118388 0.047555396979 0.04762757468 
0.04770333158 0.047782745158 0.047865395312 0.04795069387 0.048038512318 0.048128628771 0.048220813949 0.046535514872 0.046575128576 
0.046616283902 0.046659373136 0.046704898217 0.046753203754 0.0468046689 0.046859223326 0.046917041698 0.04697811682 0.047042484411 
0.047110406832 0.047181916941 0.047256766241 0.047335178878 0.047416587361 0.047500693991 0.047587021258 0.047675760569 0.047766392791 
0.046112421814 0.04615280514 0.046194769716 0.046238544738 0.046284652997 0.046333420057 0.046385103057 0.046439851585 0.046497546867 
0.046558425145 0.046622493886 0.046689863013 0.046760584387 0.046834414736 0.046911586441 0.046991616338 0.047074159654 0.047159235059 
0.047246479135 0.047335663731 0.045727665184 0.045768831142 0.045811666578 0.045856298618 0.045903038281 0.045952361328 0.04600432874 
0.046059185261 0.046116826359 0.046177382348 0.046241190059 0.046307978613 0.046377907748 0.046450703669 0.046526589281 0.046605328233 
0.04668644099 0.046770136004 0.04685587885 0.046943938012 0.045394615923 0.0454368557 0.04548053449 0.045525951099 0.045573374139 
0.045623196574 0.045675475157 0.045730489443 0.045788196356 0.045848644256 0.045912038173 0.045978349234 0.046047333562 0.046119353001 
0.046194134386 0.046271583596 0.046351557151 0.046433898569 0.04651840356 0.046605144745 0.045124471759 0.045167377905 0.04521174215 
0.045257845876 0.045305871494 0.045356118697 0.045408824335 0.045464007459 0.045521804294 0.045582245444 0.045645371921 0.04571128713 
0.045779685791 0.045850982307 0.045924873414 0.046001316245 0.046080305584 0.046161391732 0.046244795018 0.046330388569 0.04492375819 
0.044967124618 0.045012032648 0.045058640929 0.045107221485 0.045157911728 0.045210904466 0.045266322742 0.045324162168 0.045384802276 
0.045447882373 0.045513631896 0.045581686063 0.045652497502 0.045725782356 0.045801531051 0.045879568545 0.045959828397 0.046042318887 
0.046126927921 0.044796098075 0.04483979358 0.044885079475 0.044932050988 0.044981016715 0.045032046676 0.045085348104 0.045141077002 
0.04519914588 0.045259981618 0.045323237083 0.045388960263 0.045456968451 0.045527568587 0.045600653101 0.045675974165 0.045753447274 
0.045833018639 0.045914828714 0.045998644741 0.044742690129 0.044786483769 0.044831931308 0.044879154263 0.044928388349 0.044979705409 
0.045033318067 0.04508929803 0.045147921961 0.045208961869 0.045272538366 0.045338553483 0.045406750763 0.045477490602 0.045550527296 
0.045625823477 0.045702935296 0.045782058196 0.045863445264 0.045946732833 0.044762484309 0.044806252668 0.044851720624 0.044898998837 
0.044948395018 0.04499994588 0.045053911796 0.045110248672 0.045169365891 0.04523088526 0.045294976394 0.045361495978 0.045430169736 
0.045501452293 0.045574961727 0.045650194714 0.045727338062 0.045806339786 0.045887354091 0.045970314568 0.044852478747 0.044896055302 
0.044941318051 0.044988566087 0.045037991326 0.045089791464 0.045143971406 0.045200846845 0.04526047692 0.045322638386 0.045387459269 
0.045454483495 0.045524171096 0.045596167486 0.045670285167 0.045745969352 0.04582340783 0.0459025467 0.045983445752 0.046066242468 
0.045006691637 0.045049926449 0.045094898211 0.045141906364 0.04519132033 0.045243268189 0.045297823412 0.045355200721 0.045415480982 
0.045478383874 0.045544030043 0.045612064957 0.0456828139 0.045755890822 0.04583065658 0.045907047771 0.045984977353 0.046064409916 
0.046145416185 0.046228078774 0.045215775139 0.045258558641 0.045303058062 0.0453497622 0.045399061833 0.045451216406 0.04550612274 
0.045564040086 0.045624984015 0.045688730533 0.045755298533 0.04582452748 0.045896430395 0.045970516799 0.046046290515 0.046123529305 
0.046202135284 0.046281955714 0.046363139165 0.046445774581 0.045466759145 0.045509018296 0.045553005078 0.045599360157 0.045648556411 
0.045700746162 0.045756107961 0.045814703988 0.045876260723 0.045940824938 0.04600835666 0.04607861844 0.046151708757 0.046226755918 
0.046303574862 0.046381650059 0.04646092231 0.046541229296 0.046622637375 0.046705246884 0.04574445129 0.045786130161 0.045829678017 
0.045875749685 0.045924797711 0.045977127013 0.046032847632 0.046091954858 0.046154157915 0.046219461477 0.046287955188 0.04635905863 
0.046432945459 0.0465088752 0.04658648198 0.046665292614 0.046745137834 0.04682587265 0.04690749896 0.046989929044 0.046035071727 
0.046075984204 0.046119160796 0.04616489468 0.046213808577 0.046266204435 0.046322151166 0.046381705768 0.046444443794 0.04651032751 
0.046579441689 0.046651115115 0.04672541438 0.04680181203 0.046879902368 0.04695917315 0.047039406699 0.047120430057 0.047202262198 
0.047284543858 0.046328481268 0.046369123482 0.046412211134 0.046457781853 0.046506503151 0.046558924572 0.046614995263 0.04667472369 
0.046737684184 0.046803955755 0.046873119436 0.046944914711 0.047019240567 0.047095678101 0.047173802564 0.047253200808 0.047333594612 
0.047414698817 0.047496841325 0.047579299632 0.053975120818 0.054020908117 0.05406790567 0.054116740702 0.054168371562 0.054222801513 
0.054280412844 0.054341341631 0.054405785278 0.054473933868 0.054545972395 0.054622120533 0.054702281668 0.054786244622 0.054874061265 
0.054965832843 0.05506087288 0.055158842448 0.055259728437 0.055362843274 0.053418198356 0.053463897561 0.053511285674 0.05356037729 
0.053612299359 0.053667066459 0.053724786296 0.053785967384 0.053850627951 0.053918858325 0.053990861686 0.054066857766 0.054146600211 
0.054230313472 0.054317569907 0.054408709627 0.054502992226 0.05460029176 0.054700188978 0.054802472524 0.052894690905 0.052940646821 
0.05298800881 0.053037708946 0.05308995003 0.053144968879 0.053203009313 0.053264403041 0.053329138494 0.053397372003 0.053469147258 
0.053544924497 0.053624276533 0.053707558283 0.053794159708 0.053884489846 0.053977990982 0.054074309568 0.054173203944 0.054274681494 
0.052400531108 0.052446888165 0.052494590256 0.052544623897 0.052597086259 0.05265234453 0.052710662975 0.052772140865 0.052836946149 
0.052905150039 0.052976980793 0.053052203464 0.053131211419 0.053213676736 0.053299792012 0.053389217828 0.053481707243 0.053576812605 
0.053674751048 0.053775094345 0.051936916154 0.05198345518 0.052031918125 0.052082372397 0.052135231585 0.052190783199 0.05224931368 
0.05231088025 0.052375715522 0.052443821307 0.052515296819 0.052590250921 0.052668689712 0.052750398227 0.052835689788 0.052924088423 
0.053015525333 0.053109560625 0.053206402093 0.053305501841 0.051509890905 0.051556947211 0.05160592653 0.051656908984 0.051710231052 
0.051766137238 0.051824869431 0.051886605253 0.05195134281 0.052019324974 0.052090515472 0.052165012947 0.052242868424 0.052323795499 
0.052408102226 0.05249548731 0.052585667555 0.052678726106 0.052774331828 0.052872415078 0.051127488561 0.051175382745 0.051224978297 
0.05127652567 0.051330313974 0.051386609685 0.051445594835 0.051507440244 0.051572149739 0.051639979034 0.051710907553 0.051784957834 
0.051862176256 0.051942314355 0.052025651526 0.052112037673 0.052201123229 0.052292941994 0.052387384129 0.052484379172 0.050799026057 
0.050847449558 0.050897608471 0.050949711418 0.051003923543 0.051060639681 0.051119911512 0.051181866167 0.051246644456 0.051314310937 
0.051384984849 0.051458645182 0.051535122506 0.051614709684 0.051697218007 0.051782612119 0.051870777685 0.051961629687 0.052054916566 
0.052150758641 0.050531486513 0.050580402406 0.050631055821 0.050683631971 0.050738297664 0.050795303276 0.050854837669 0.050917010941 
0.050981902653 0.051049527276 0.051120020212 0.05119337985 0.051269347822 0.051348394049 0.051430198591 0.051514789337 0.051602205807 
0.051691990215 0.051784323247 0.051879123003 0.050330143048 0.05037941634 0.0504304229 0.05048337066 0.050538481099 0.050595831841 
0.05065560884 0.050717951515 0.050782860178 0.05085063073 0.050921054272 0.050994270655 0.051070007099 0.051148616529 0.051229930692 
0.051313993069 0.051400590913 0.051489659062 0.051581175472 0.051675120011 0.050197990074 0.05024752706 0.050298858495 0.050352091749 
0.05040749092 0.050465077207 0.050525078903 0.050587679982 0.050652748927 0.050720719727 0.050791247176 0.050864409439 0.050940034386 
0.051018508523 0.051099621367 0.051183293883 0.051269365524 0.051357774168 0.05144870739 0.051541926988 0.050136085909 0.050185773513 
0.05023722924 0.0502906606 0.050346257319 0.050404111477 0.050464369281 0.050527098079 0.050592669774 0.050660747108 0.050731474026 
0.050804883704 0.050880591358 0.050959065238 0.051040130523 0.051123706149 0.05120940173 0.05129744663 0.051387976504 0.051480587256 
0.050143534599 0.050193199786 0.050244713642 0.050298232509 0.050353993628 0.050412006168 0.050472524166 0.050535568228 0.050601441345 
0.050669843745 0.050740972653 0.050814682793 0.050890691456 0.05096956115 0.051050920064 0.051134285788 0.051219957012 0.051307799281 
0.051397924051 0.051490291308 0.050217536078 0.050267095779 0.05031853505 0.050372033939 0.050427838283 0.050486046113 0.050546694547 
0.050610120808 0.050676401569 0.050745278344 0.05081686164 0.050890849756 0.050967616485 0.051046895451 0.051128619748 0.051212276841 
0.051298028848 0.051385881251 0.051475868185 0.051567962858 0.050353127153 0.05040248134 0.05045374172 0.050507126485 0.050562950373 
0.050621286442 0.050682204763 0.050745978204 0.05081268707 0.050882079758 0.05095426913 0.051028883042 0.051106361716 0.05118636462 
0.051268380992 0.051352435889 0.051438479813 0.051526498565 0.051616477145 0.051708367939 0.050543204543 0.05059229674 0.050643310035 
0.050696520534 0.05075226336 0.05081071992 0.050871900434 0.050936033912 0.051003183354 0.051073116359 0.051145940322 0.051221265938 
0.051299563787 0.051380132265 0.051462744399 0.051547349039 0.051633785146 0.051721985576 0.051812032143 0.051903890726 0.050778897564 
0.050827714314 0.050878364765 0.050931384461 0.050987040583 0.051045493739 0.051106959733 0.051171583955 0.05123907427 0.051309535176 
0.05138291449 0.051459034952 0.051538013377 0.051619140136 0.05170239823 0.051787446568 0.051874303824 0.051962786586 0.052052905935 
0.052144753167 0.051050653598 0.051099065955 0.051149479737 0.051202254811 0.051257796368 0.05131628787 0.051377916677 0.051442793882 
0.051510658775 0.051581580719 0.05165559552 0.051732208559 0.051811652649 0.051893326551 0.051977041985 0.05206255733 0.05214975327 
0.052238457441 0.052328668028 0.052420348286 0.051350376769 0.051398147593 0.051448267277 0.051500785099 0.051556176669 0.05161463856 
0.05167638111 0.051741434632 0.051809569637 0.051880792124 0.051955170051 0.052032118925 0.052111758209 0.052193723331 0.05227774023 
0.052363538832 0.052450967944 0.052539858134 0.052630110058 0.05272146534 0.051672468591 0.051720003805 0.051769865236 0.051822165422 
0.051877359996 0.051935770227 0.051997441754 0.052062496753 0.052130691808 0.052202061124 0.052276407921 0.052353377327 0.052433038062 
0.052515005918 0.052599068464 0.052684940177 0.052772471251 0.052861400776 0.052951935665 0.053043427223 0.05951554789 0.059567758571 
0.059621417384 0.059677019715 0.059735488675 0.059796687514 0.059861156825 0.059928984137 0.060000378445 0.060075546563 0.060154651234 
0.060237790595 0.060325100633 0.060416126055 0.06051103226 0.060609994062 0.060712368088 0.060817946234 0.06092665148 0.061037881017 
0.058892831082 0.058945093084 0.058999240176 0.059055254009 0.059114061825 0.059175765126 0.059240357255 0.059308439539 0.059380081269 
0.059455298746 0.059534312442 0.059617348009 0.059704052841 0.059794724173 0.059889004771 0.059987229939 0.060088789599 0.060193539102 
0.06030124644 0.060411595635 0.058318037168 0.058370629821 0.058424813997 0.058481522984 0.058540696396 0.058602683761 0.058667646574 
0.058735933432 0.058807632727 0.058882856375 0.058961769608 0.059044382664 0.059130686512 0.059220896318 0.059314529703 0.059411902577 
0.059512669271 0.059616509422 0.05972325498 0.059832764419 0.057787564264 0.057840482046 0.057895001421 0.057952032498 0.0580115055 
0.058073729335 0.058138985259 0.058207372391 0.05827913491 0.058354325135 0.058433030664 0.058515364782 0.058601341669 0.058690781176 
0.058783914267 0.058880504459 0.058980399477 0.059083265788 0.059189112979 0.059297613101 0.057300925635 0.057353946392 0.057409203532 
0.057466521002 0.057526349912 0.057588869766 0.05765430771 0.057722825463 0.057794555595 0.057869649702 0.05794829936 0.05803019432 
0.058115666413 0.058204458865 0.058296867314 0.058392628293 0.05849155104 0.058593459775 0.058698394474 0.058805917269 0.056861064498 
0.056914483827 0.056970115819 0.05702787565 0.057088060714 0.057150853972 0.057216515505 0.05728513369 0.057356854169 0.057431847013 
0.057510109959 0.057591708869 0.057676715265 0.057764843439 0.057856470968 0.057951385771 0.058049274942 0.058150261998 0.058254278229 
0.05836096499 0.056472336552 0.056526471512 0.056582519153 0.056640680228 0.056701207912 0.056764317497 0.056830174784 0.056898900102 
0.056970668829 0.057045478768 0.057123534185 0.057204766398 0.057289258985 0.057376750791 0.057467639557 0.057561708224 0.057658704881 
0.057758804947 0.057861683737 0.057967432575 0.056140597257 0.056195137106 0.05625157704 0.056310152824 0.056371007442 0.056434419229 
0.056500498048 0.056569336781 0.056641101275 0.056715831189 0.056793678553 0.05687458834 0.056958621777 0.057045570526 0.057135746236 
0.057228981524 0.057325285692 0.057424537695 0.057526435776 0.057631172219 0.055870390484 0.055925272313 0.055982091008 0.056041027256 
0.056102187285 0.056165814832 0.056232105811 0.056301111005 0.056372942636 0.056447642635 0.056525315028 0.056606001399 0.056689477661 
0.056776128345 0.056865724963 0.056958325121 0.057053982642 0.057152337259 0.057253416318 0.05735727327 0.055665371619 0.055720532159 
0.055777636268 0.055836871488 0.055898337837 0.055962195809 0.056028685113 0.056097810743 0.056169618468 0.056244457973 0.05632208252 
0.056402605271 0.056485824692 0.056572126975 0.056661315287 0.056753518801 0.056848428356 0.056946117606 0.057046505561 0.057149578315 
0.055527763908 0.055583106026 0.055640403564 0.055699840225 0.055761579617 0.055825654873 0.055892273443 0.055961596253 0.056033533874 
0.056108488869 0.056186170157 0.056266624206 0.056349754553 0.056435865575 0.056524878439 0.056616718389 0.056711137771 0.056808216347 
0.056908095851 0.05701050045 0.055458244441 0.055513716186 0.055571168371 0.055630719309 0.055692620545 0.05575689294 0.055823693175 
0.055893080931 0.055965323636 0.056040449907 0.056118257817 0.056198840108 0.056281956611 0.056368071052 0.056456952904 0.056548610287 
0.056642723961 0.056739449688 0.056838914887 0.05694072714 0.055456073898 0.055511546958 0.055569066498 0.055628723985 0.055690720432 
0.055755152141 0.055822119068 0.055891713846 0.055964287234 0.056039527225 0.056117550622 0.05619834782 0.056281629097 0.056368000993 
0.056456945457 0.056548459506 0.056642419529 0.056738917859 0.05683803328 0.056939563033 0.055518954283 0.055574383315 0.055631855705 
0.055691507551 0.055753553482 0.055818115038 0.05588528361 0.05595509042 0.056027901346 0.056103447014 0.056181782974 0.056262901243 
0.056346504512 0.056433074611 0.056522327647 0.056613879983 0.056707833569 0.056804239197 0.056903072864 0.057004352381 0.055643091231 
0.05569841119 0.055755765772 0.055815364112 0.055877414296 0.055942053832 0.056009284739 0.056079421204 0.056152515155 0.056228386883 
0.056307110394 0.056388387114 0.056472719713 0.056559767309 0.056649081081 0.056740823545 0.056834930035 0.056931372088 0.057030143372 
0.057131179506 0.055823344834 0.055878474547 0.055935679182 0.055995154649 0.056057183943 0.056121853253 0.056189250893 0.056259601579 
0.056332991792 0.056409211296 0.056488342463 0.056570059518 0.056654885124 0.056742264502 0.056831910427 0.056923954949 0.057018244466 
0.057114786631 0.057213525439 0.057314465887 0.056053759823 0.056108681402 0.056165627425 0.056224965108 0.056286888382 0.056351522539 
0.056419128045 0.056489673575 0.056563331356 0.056639829267 0.056719352016 0.056801587071 0.056886845248 0.056974465868 0.057064485569 
0.057156796722 0.057251314753 0.057347997786 0.057446703981 0.057547585197 0.056328301759 0.056383017772 0.056439739149 0.056498859279 
0.056560653113 0.056625247932 0.056692865755 0.056763683657 0.056837420046 0.056914165819 0.056993925427 0.057076599858 0.057162092216 
0.057250017697 0.057340343339 0.057432928291 0.057527581373 0.05762440512 0.057723146763 0.057823880822 0.056642393607 0.056696453156 
0.056752986857 0.056811879712 0.056873510687 0.056938064914 0.057005648428 0.057076469743 0.057150288315 0.057227195167 0.057307191558 
0.057390003152 0.05747556264 0.057563670943 0.057654173706 0.057746916915 0.057841758952 0.057938609937 0.058037375102 0.058137677264 