# vtk DataFile Version 5.1
vtk output
ASCII
DATASET STRUCTURED_POINTS
DIMENSIONS 50 50 50
SPACING 0.002 0.002 0.002
ORIGIN 0.2174 -0.052672 0.02732
POINT_DATA 125000
FIELD FieldData 1
potential 1 125000 double
0.53620571958 0.53615126423 0.53610309974 0.53606432243 0.53603587023 0.53601830204 0.53601025576 0.53600947791 0.536012299 
0.53601538304 0.53601574777 0.53601066491 0.53599873997 0.53598080822 0.53595646077 0.53592849821 0.53590001371 0.535873961 
0.53585395817 0.53584382076 0.53584514147 0.53586017485 0.53588979855 0.53593344583 0.53599043358 0.53605920046 0.53613639185 
0.53622004936 0.53630670465 0.53639211535 0.53647330245 0.5365465163 0.53660993719 0.53665933152 0.53669390644 0.53671176722 
0.53671158824 0.53669322971 0.53665519768 0.53659704287 0.53651825173 0.53641730392 0.53629537054 0.53615324856 0.53599180955 
0.53581413014 0.53562315696 0.53542252794 0.53521709845 0.53501153937 0.52030815453 0.52024897698 0.52019517398 0.52015072787 
0.52011652436 0.52009336026 0.52007986182 0.52007462871 0.52007375167 0.52007407261 0.52007309627 0.52006787083 0.52005785711 
0.52004094999 0.52001922921 0.51999448847 0.51996904036 0.51994581966 0.51992859207 0.51991989216 0.51992210766 0.51993722033 
0.51996618563 0.5200087004 0.52006392974 0.52013091949 0.52020661077 0.52028882336 0.5203740882 0.52045882578 0.52053927286 
0.52061227516 0.52067549909 0.52072530016 0.52076003891 0.52077769344 0.52077712494 0.52075726985 0.5207176062 0.52065714476 
0.5205759965 0.52047225799 0.52034780341 0.52020406824 0.52004181495 0.51986404958 0.51967384356 0.51947555213 0.51927415085 
0.51907351367 0.50381469074 0.50374985717 0.50369097212 0.50364026729 0.50359990955 0.50357056643 0.50355125803 0.50354059989 
0.5035351861 0.50353264216 0.50353002265 0.50352554082 0.50351661092 0.5035027366 0.50348423477 0.50346366143 0.50344245338 
0.50342307865 0.50340823871 0.50340138374 0.50340421438 0.50341845829 0.50344561847 0.50348537374 0.50353762208 0.50360067671 
0.50367274064 0.50375169841 0.5038338453 0.50391591271 0.5039945184 0.50406644665 0.50412895669 0.50417833901 0.50421279254 
0.50423029278 0.50422900176 0.50420775406 0.50416675226 0.50410470269 0.50402220863 0.50391730205 0.5037925182 0.50364917169 
0.5034887632 0.5033141193 0.50312875998 0.50293662337 0.50274312593 0.50255137495 0.48686484854 0.48679460363 0.48672998036 
0.48667272638 0.48662616928 0.48658965345 0.48656420429 0.4865480139 0.48653819782 0.48653264239 0.48652899431 0.4865245213 
0.4865174487 0.48650715307 0.48649330831 0.48647715244 0.48646067921 0.48644539 0.48643372457 0.4864285893 0.48643140033 
0.48644426958 0.48646829436 0.48650403612 0.4865512164 0.48660885203 0.4866756174 0.48674936968 0.48682715823 0.4869056058 
0.4869816279 0.48705158316 0.48711280671 0.48716130689 0.48719506845 0.48721152839 0.48721000149 0.48718839924 0.48714589291 
0.48708325742 0.48699901665 0.48689465877 0.4867712545 0.48663054695 0.4864741816 0.4863056179 0.48612839326 0.48594576113 
0.48576345691 0.48558387458 0.46960770581 0.4695320128 0.46946089534 0.46939782024 0.4693444028 0.46930149353 0.46926954937 
0.46924763523 0.46923353195 0.4692254192 0.46922040562 0.46921678821 0.46921216216 0.46920565162 0.46919652212 0.46918569133 
0.46917418632 0.4691632035 0.46915474844 0.46915088269 0.46915316708 0.46916381683 0.4691839672 0.46921443469 0.46925554131 
0.46930642713 0.46936623395 0.46943373226 0.46950578243 0.46957960467 0.46965201172 0.46971934939 0.4697786364 0.46982629815 
0.46985906293 0.46987507709 0.46987261635 0.46985052561 0.46980760265 0.46974376928 0.46965937677 0.46955671313 0.46943579739 
0.46929933111 0.46914947437 0.46898914613 0.46882236038 0.46865275383 0.46848380612 0.4683194409 0.45219629508 0.45211549691 
0.45203871074 0.45196971629 0.45190993073 0.45186096865 0.45182285071 0.45179577445 0.45177783094 0.4517671445 0.45176146074 
0.45175863413 0.45175698265 0.45175462808 0.4517505423 0.45174525771 0.4517386995 0.451732105 0.45172634323 0.45172328592 
0.45172500216 0.45173267142 0.45174807601 0.45177233166 0.45180609225 0.4518491158 0.45190144356 0.45196173181 0.45202719246 
0.45209580461 0.45216414751 0.45222864627 0.45228592104 0.45233199239 0.45236382928 0.45237890578 0.45237571337 0.45235292914 
0.45230960679 0.45224605465 0.45216275927 0.45206173269 0.45194449216 0.45181368036 0.45167171366 0.45152142596 0.45136679775 
0.45121146311 0.45105861618 0.45091096207 0.43478772564 0.43470227574 0.43462067215 0.43454622163 0.43448051597 0.43442592484 
0.4343825178 0.43435115716 0.4343296067 0.43431681901 0.43431081127 0.43430934238 0.43431078293 0.43431270714 0.43431371371 
0.43431354503 0.43431183873 0.43430928949 0.43430609658 0.43430347541 0.4343039499 0.43430802465 0.43431825183 0.43433569871 
0.43436136066 0.43439616983 0.43444020808 0.434492883 0.43455153718 0.4346144838 0.43467837998 0.43473988573 0.43479473283 
0.43483934131 0.43486992965 0.434884352 0.43488061793 0.43485700633 0.43481352285 0.43475051279 0.43466834553 0.43456993067 
0.43445700801 0.43433319685 0.43420015064 0.43406131739 0.43392011525 0.43377999984 0.43364382012 0.433514092 0.41753680554 
0.41744743053 0.41736182158 0.41728265322 0.41721271508 0.41715346596 0.41710599194 0.41707062632 0.41704635658 0.41703246879 
0.41702647871 0.41702678084 0.41703102308 0.417036977 0.41704274379 0.41704729796 0.41705011808 0.41705080953 0.41704977667 
0.41704764715 0.41704614757 0.4170464139 0.41705082207 0.41706120949 0.41707895172 0.41710528027 0.41714071335 0.41718534929 
0.41723708622 0.41729445545 0.41735417889 0.41741194421 0.41746462281 0.41750770161 0.41753699008 0.41755081796 0.41754627085 
0.4175219409 0.41747878436 0.41741609075 0.41733564341 0.41724029844 0.41713266453 0.41701567351 0.41689250189 0.4167658281 
0.41663857447 0.41651422608 0.41639519405 0.41628363519 0.4005944375 0.40050315201 0.40041434104 0.40033209409 0.40025873134 
0.40019609326 0.40014558849 0.40010771707 0.40008198191 0.40006722995 0.40006181035 0.40006384489 0.40007106844 0.40008054092 
0.40009044061 0.40009904221 0.40010538293 0.40010886294 0.40010929721 0.40010678635 0.40010310287 0.40009968788 0.40009839437 
0.40010180797 0.40011155196 0.40012964598 0.40015676434 0.40019365421 0.40023924037 0.40029090521 0.40034574535 0.40040009381 
0.40045003489 0.40049179838 0.40052001118 0.40053309237 0.40052796077 0.40050343588 0.40046021461 0.40039788178 0.40031966992 
0.40022772728 0.40012534595 0.40001643102 0.39990277967 0.3997881507 0.39967487812 0.39956626489 0.39946410695 0.39937014488 
0.38410477083 0.3840122433 0.38392281279 0.38383895015 0.38376395268 0.38369995089 0.38364766797 0.38360874516 0.38358212025 
0.38356717743 0.38356268803 0.38356637232 0.38357573646 0.38358790257 0.38360127647 0.38361305903 0.38362227314 0.38362771333 
0.38362865197 0.38362548978 0.38361948078 0.38361221732 0.38360551032 0.38360240234 0.38360510115 0.38361566569 0.38363503619 
0.38366478014 0.38370421313 0.38375016267 0.38380050717 0.38385163283 0.38389917689 0.38393907006 0.38396621246 0.38397792214 
0.38397207098 0.3839476289 0.383904347 0.38384335829 0.38376722289 0.38367906531 0.38358215768 0.38348091889 0.38337758845 
0.3832748054 0.38317532181 0.38308191242 0.38299528195 0.38291773565 0.36820163205 0.36811048277 0.36802166501 0.36793864372 
0.36786363297 0.36779933317 0.3677470848 0.36770804593 0.36768151242 0.36766709269 0.36766354127 0.36766856229 0.36767980848 
0.3676940988 0.36770932728 0.36772333177 0.3677339409 0.36774041681 0.36774137885 0.36773702432 0.36772902501 0.36771814963 
0.36770674351 0.36769807551 0.36769473167 0.36769851729 0.36771144855 0.36773520899 0.36776813794 0.36780876023 0.36785486959 
0.36790270765 0.36794745243 0.36798521939 0.36801108083 0.36802164036 0.36801523441 0.36799034466 0.36794746673 0.3678878346 
0.36781413547 0.36773029141 0.36763921702 0.36754589998 0.36745216375 0.36736053219 0.36727424474 0.36719473789 0.36712281292 
0.36706020589 0.35300609698 0.35291772633 0.35283211723 0.35275158576 0.35267870819 0.35261580329 0.3525650419 0.35252699515 
0.35250130804 0.35248801492 0.35248523282 0.35249125609 0.3525035141 0.35251860527 0.35253500437 0.35254977158 0.35256084758 
0.35256711868 0.35256794628 0.35256224932 0.35255178569 0.35253815819 0.35252305068 0.35250978022 0.35250131783 0.35249973789 
0.35250748337 0.35252541917 0.3525530719 0.35258893671 0.35263072661 0.35267469419 0.35271637655 0.35275176903 0.35277577347 
0.35278518105 0.35277818945 0.35275359845 0.35271146881 0.3526534421 0.35258315109 0.35250377383 0.35241887827 0.35233297047 
0.35224842519 0.35216737404 0.35209316052 0.35202611604 0.35196699181 0.35191714263 0.33862255139 0.33853925621 0.33845842191 
0.33838254813 0.33831367333 0.33825378151 0.33820562174 0.33816963528 0.33814559988 0.33813335319 0.33813136118 0.33813782932 
0.33815025016 0.33816527961 0.33818146679 0.3381958417 0.33820648033 0.33821178885 0.33821141189 0.33820455591 0.33819261286 
0.33817670026 0.33815903651 0.33814239955 0.33813017063 0.33812482216 0.33812787647 0.33814144481 0.33816418036 0.33819595446 
0.33823332759 0.33827324749 0.33831169543 0.33834430413 0.33836613189 0.33837422269 0.33836652989 0.33834219196 0.33830111895 
0.33824566977 0.33817916696 0.33810444152 0.33802602525 0.33794714422 0.33787156368 0.33780024214 0.33773662257 0.33768060131 
0.33763304312 0.33759405508 0.32513855646 0.32506203467 0.32498762972 0.32491772217 0.32485434992 0.32479954432 0.32475463896 
0.32472124876 0.32469960702 0.32468841764 0.32468683929 0.32469312497 0.32470442239 0.32471883228 0.32473384927 0.32474672175 
0.32475570941 0.3247598013 0.32475785719 0.32474992233 0.32473652358 0.32471928985 0.32470008163 0.32468145822 0.32466718245 
0.32465905077 0.32465904351 0.32466879042 0.32468774248 0.3247148954 0.32474833657 0.32478437437 0.32481902601 0.32484833137 
0.32486773868 0.32487424423 0.32486598986 0.32484206471 0.32480277505 0.32475040167 0.32468772283 0.32461888084 0.32454692892 
0.32447516001 0.32440769647 0.32434543359 0.32429087926 0.32424448235 0.3242062157 0.32417638056 0.31262180029 0.31255347928 
0.31248669727 0.31242408811 0.31236707094 0.31231791637 0.31227778752 0.31224736725 0.31222784077 0.31221773763 0.31221640575 
0.31222177681 0.31223177209 0.31224443624 0.31225728757 0.31226771336 0.31227456436 0.31227673654 0.31227317116 0.3122640532 
0.31224999065 0.31223237311 0.312212689 0.31219347829 0.31217822747 0.31216845756 0.31216617724 0.31217317813 0.31218866114 
0.31221263689 0.31224133882 0.31227331885 0.31230412351 0.31232987036 0.31234656308 0.31235196718 0.3123429822 0.31231976998 
0.31228249414 0.31223354554 0.31217579317 0.3121123839 0.31204715009 0.31198270754 0.31192266909 0.31186837301 0.31182218702 
0.31178390509 0.31175326066 0.31173048142 0.30111992107 0.30106092251 0.3010026512 0.30094804907 0.30089814483 0.3008550556 
0.300819898 0.30079306582 0.30077557764 0.30076673594 0.30076498109 0.30076887768 0.30077726846 0.30078731817 0.30079728907 
0.30080500807 0.30080936298 0.30080919552 0.30080428538 0.30079440345 0.30077988826 0.30076225707 0.30074300164 0.30072485511 
0.30070922343 0.30069886207 0.30069520485 0.30070009115 0.30071306824 0.30073297298 0.30075807244 0.30078577359 0.30081251276 
0.30083477485 0.30084933279 0.30085256869 0.30084330618 0.30082101807 0.30078647688 0.30074142353 0.30068846403 0.30063103783 
0.30057236104 0.30051550414 0.30046263333 0.30041598955 0.30037640049 0.30034463819 0.30032057423 0.30030331342 0.29066350711 
0.29061344856 0.29056415555 0.29051797318 0.29047528038 0.29043838047 0.29040806641 0.2903852113 0.29036958498 0.29036105933 
0.29035911409 0.29036139989 0.29036756982 0.29037447353 0.29038133002 0.29038601345 0.29038789979 0.29038587052 0.29037954054 
0.29036879297 0.2903546378 0.29033759621 0.29031971816 0.29030257766 0.29028762358 0.29027770832 0.2902737052 0.29027711666 
0.29028746282 0.29030396644 0.29032562949 0.29034889694 0.29037139901 0.2903901815 0.2904020716 0.29040382342 0.29039456961 
0.29037366443 0.29034188093 0.29030089389 0.29025318795 0.2902022369 0.29015028573 0.29010003452 0.29005422185 0.29001385461 
0.2899807441 0.2899542878 0.28993520386 0.28992218017 0.28126494812 0.28122402878 0.28118364079 0.28114505237 0.2811096325 
0.2810786343 0.28105322244 0.28103354306 0.28102000552 0.28101155786 0.28100891169 0.28100969639 0.28101301245 0.28101696694 
0.28102076628 0.2810224648 0.28102182396 0.28101805778 0.28101049825 0.28099930958 0.28098594488 0.28097003913 0.28095386045 
0.28093813789 0.28092475596 0.28091516985 0.28091126913 0.28091335324 0.28092182427 0.28093545532 0.28095346108 0.28097253635 
0.28099182175 0.28100657834 0.2810156078 0.28101587329 0.28100676799 0.2809877573 0.28095924221 0.28092268586 0.28088059251 
0.28083606214 0.28079048872 0.28074674866 0.2807072747 0.28067281793 0.28064478179 0.28062354431 0.28060801007 0.28059870817 
0.27292376863 0.27289124123 0.2728587821 0.27282785429 0.27279909768 0.27277355696 0.27275217853 0.27273531965 0.27272322951 
0.27271555305 0.27271120716 0.27271055544 0.27271161077 0.27271284471 0.27271345999 0.27271262864 0.27270990849 0.27270418717 
0.27269588828 0.27268479944 0.27267207382 0.27265813281 0.27264299167 0.2726289255 0.27261724569 0.27260885511 0.27260523661 
0.27260651103 0.27261280841 0.27262374652 0.27263807255 0.27265430436 0.272669333 0.27268089549 0.27268767243 0.27268720097 
0.27267836732 0.27266081297 0.27263555192 0.27260368919 0.2725671856 0.27252838005 0.27248921146 0.27245210984 0.27241853729 
0.27238937743 0.27236626372 0.27234902167 0.27233719542 0.27233063365 0.26562862742 0.26560348124 0.26557831363 0.26555382444 
0.26553089483 0.26551034495 0.26549222458 0.26547800036 0.26546716673 0.26545990052 0.26545435738 0.26545160809 0.26545051122 
0.26544943464 0.26544766238 0.265444521 0.265439663 0.26543278416 0.26542392631 0.2654131909 0.26540118409 0.26538858297 
0.26537540707 0.26536286148 0.26535252156 0.26534564485 0.2653416893 0.26534256715 0.26534742204 0.265356329 0.26536739684 
0.26538001489 0.26539128376 0.26540023202 0.26540478925 0.26540324257 0.26539521102 0.2653797846 0.26535784168 0.26533019065 
0.26529886899 0.26526580886 0.26523288711 0.26520156909 0.26517357909 0.26514991012 0.26513119793 0.26511735787 0.26510881651 
0.26510502994 0.25936042694 0.25934180194 0.25932304591 0.25930425626 0.25928614264 0.25926947198 0.25925487715 0.25924241702 
0.25923224069 0.2592242827 0.2592184562 0.2592142895 0.25921104798 0.25920808837 0.25920438565 0.25919945359 0.25919308024 
0.25918531202 0.25917625028 0.25916594996 0.25915482525 0.25914340817 0.25913163907 0.25912075014 0.25911175571 0.2591050212 
0.25910167803 0.25910183258 0.25910569207 0.25911202141 0.2591205661 0.2591300471 0.25913863313 0.25914478547 0.25914726063 
0.25914549315 0.25913774688 0.2591239067 0.25910502238 0.25908151186 0.25905566986 0.25902788675 0.25900059074 0.25897464248 
0.25895264781 0.25893384864 0.25891915289 0.25890897672 0.25890331773 0.25890222476 0.25409733237 0.25408438397 0.25407039633 
0.25405602581 0.25404197681 0.25402884754 0.25401625282 0.2540053346 0.25399583565 0.25398761702 0.25398118179 0.25397547372 
0.25397064874 0.25396598529 0.25396081051 0.25395443103 0.25394737218 0.25393888123 0.25392966886 0.25391967342 0.25390960749 
0.25389874443 0.25388877909 0.2538793797 0.25387098944 0.25386508204 0.25386174862 0.2538616804 0.25386370112 0.2538680158 
0.25387425459 0.25388088122 0.25388737158 0.25389102801 0.2538919543 0.253889762 0.2538826288 0.25387060484 0.25385456972 
0.25383525698 0.25381339303 0.25379079853 0.25376875612 0.2537485818 0.2537313489 0.25371728951 0.25370643262 0.25370009695 
0.25369760809 0.25369870961 0.249815408 0.24980693573 0.24979678179 0.2497860138 0.24977502613 0.24976407573 0.2497533385 
0.24974357582 0.24973387531 0.24972591155 0.24971874908 0.24971181634 0.24970565502 0.24969971781 0.24969313875 0.2496858346 
0.24967821246 0.24966982327 0.2496603837 0.24965113186 0.24964157123 0.24963182709 0.24962249944 0.24961424007 0.24960680072 
0.24960135414 0.24959795702 0.24959672018 0.24959734174 0.24959984565 0.24960390754 0.24960810834 0.24961216357 0.2496145489 
0.24961449802 0.24961189362 0.2496052762 0.24959492278 0.2495817001 0.24956575957 0.24954843238 0.24953047166 0.24951329907 
0.24949791549 0.24948502851 0.24947580156 0.24946938587 0.24946620585 0.24946707359 0.24947105224 0.24649148604 0.24648645008 
0.24647927818 0.24647114587 0.24646264464 0.24645338977 0.24644345844 0.24643380693 0.24642501192 0.24641680251 0.24640910498 
0.24640142822 0.24639369105 0.24638699194 0.24637966486 0.24637137825 0.24636350383 0.24635495784 0.24634579505 0.24633685169 
0.24632775834 0.24631890799 0.24631038645 0.2463030229 0.24629633856 0.24629044861 0.24628659202 0.24628455417 0.24628422168 
0.24628481475 0.24628649408 0.24628873202 0.24629089318 0.24629189188 0.24629089752 0.24628797557 0.24628220424 0.24627384272 
0.24626265008 0.24625010886 0.24623669984 0.24622332618 0.24621107089 0.24620008775 0.24619133067 0.2461864817 0.24618392744 
0.24618482751 0.24618918878 0.24619690907 0.24410598077 0.24410319429 0.24409842717 0.24409219274 0.24408493205 0.24407668815 
0.24406804575 0.24405874421 0.24404974078 0.24404112619 0.2440326804 0.2440241995 0.24401577422 0.24400780648 0.24399976017 
0.24399141641 0.2439831353 0.24397468961 0.24396594074 0.24395749283 0.2439486931 0.24394040659 0.24393243863 0.24392519178 
0.24391885499 0.24391323338 0.24390889665 0.24390555485 0.24390357835 0.24390300051 0.24390271967 0.2439030307 0.24390303956 
0.24390253337 0.24390104381 0.24389767586 0.2438930603 0.24388598613 0.24387730225 0.24386838182 0.24385869339 0.24384911689 
0.24384079913 0.2438343685 0.24383003633 0.24382980666 0.24383087551 0.24383608709 0.24384472544 0.24385620062 0.24264312959 
0.24264216224 0.24263906922 0.24263386044 0.24262760994 0.24262009172 0.24261120889 0.24260267123 0.24259318611 0.24258363523 
0.24257440919 0.24256535902 0.24255595153 0.24254731078 0.24253896676 0.24253027041 0.24252174398 0.24251346571 0.24250552657 
0.24249730207 0.24248871808 0.24248078143 0.24247320248 0.2424660017 0.24245940507 0.24245385449 0.24244875647 0.24244435149 
0.24244115186 0.24243832882 0.24243631457 0.24243485152 0.24243308863 0.24243132764 0.24242926497 0.24242569012 0.24242158972 
0.24241628594 0.24241004331 0.24240387558 0.24239760388 0.24239190603 0.24238761025 0.24238532473 0.24238550938 0.2423894289 
0.24239543804 0.24240527767 0.24241818774 0.24243397288 0.24209252034 0.24209290864 0.24209094858 0.24208658267 0.24208067343 
0.24207325936 0.24206456377 0.24205520408 0.24204496093 0.24203461384 0.24202442174 0.24201469631 0.24200454144 0.24199520285 
0.24198641339 0.24197792536 0.24196944243 0.24196113747 0.2419533599 0.24194537568 0.24193795561 0.2419300857 0.24192264352 
0.2419153816 0.2419086342 0.24190219618 0.24189608798 0.24189067723 0.24188557679 0.24188092595 0.24187722138 0.24187403606 
0.24187074379 0.24186734896 0.24186481419 0.24186138953 0.24185790405 0.24185398188 0.2418502052 0.24184654 0.2418434776 
0.24184150625 0.24184094795 0.24184317765 0.2418481088 0.24185643886 0.24186793311 0.24188223746 0.24190007164 0.24192146458 
0.24244930988 0.24245051634 0.24244964787 0.24244603528 0.24244007097 0.24243224021 0.24242285425 0.24241248591 0.24240144739 
0.24238989504 0.24237882201 0.24236778114 0.24235722982 0.24234721318 0.24233776536 0.24232948571 0.2423213297 0.24231343 
0.24230569595 0.24229819261 0.24229126864 0.24228364476 0.24227590585 0.24226856233 0.24226119467 0.24225350068 0.24224667464 
0.24223977287 0.24223267055 0.24222618594 0.24222054737 0.24221540773 0.24221065714 0.2422062213 0.24220287357 0.24219955048 
0.24219643074 0.24219423353 0.24219268772 0.24219145844 0.24219146277 0.24219338934 0.24219743432 0.24220366346 0.24221358592 
0.24222695078 0.24224357858 0.2422636554 0.24228743025 0.24231478815 0.24371504479 0.24371675957 0.24371633429 0.24371318987 
0.24370667169 0.24369827944 0.24368799641 0.24367627211 0.24366385856 0.24365116903 0.24363869817 0.24362671609 0.243615194 
0.2436047058 0.24359524733 0.24358674635 0.24357873187 0.24357160107 0.24356420829 0.24355745099 0.24355006313 0.24354293776 
0.24353528827 0.24352713937 0.2435187319 0.24350998411 0.24350108412 0.24349240876 0.24348394471 0.24347493881 0.24346713671 
0.24345976753 0.2434538709 0.24344838347 0.24344411584 0.24344078414 0.24343874834 0.24343790282 0.24343830081 0.24343971671 
0.24344337225 0.2434492975 0.2434576067 0.24346883325 0.24348377479 0.24350216553 0.24352535631 0.24355173975 0.2435824075 
0.24361677985 0.24589646831 0.24589882359 0.24589878708 0.24589510904 0.24588856988 0.24587933073 0.24586766058 0.24585429483 
0.24584013409 0.24582577148 0.24581167795 0.24579853118 0.24578627488 0.24577528896 0.24576559536 0.24575710386 0.24574933095 
0.24574278392 0.24573652127 0.24572988884 0.24572273884 0.24571530592 0.24570773484 0.2456988179 0.24568904593 0.24567892587 
0.24566770336 0.24565608987 0.24564584979 0.24563443034 0.24562432981 0.2456148972 0.24560706929 0.24560042044 0.24559524336 
0.24559235885 0.24559102744 0.24559198867 0.2455944846 0.24559899333 0.24560633179 0.24561664531 0.24562966664 0.24564613604 
0.24566666694 0.24569163087 0.24572157654 0.24575538439 0.24579404551 0.24583688554 0.24900670425 0.24900978477 0.24900950779 
0.24900595424 0.24899853994 0.2489878592 0.24897457883 0.24895940994 0.2489431549 0.24892663759 0.24891088606 0.24889632663 
0.24888305831 0.24887170192 0.24886185916 0.24885365238 0.24884659711 0.24884052814 0.2488349543 0.24882888815 0.24882214519 
0.24881447405 0.24880627427 0.24879668089 0.24878519013 0.24877277954 0.248759213 0.24874498255 0.24873139397 0.2487180473 
0.24870469984 0.24869277896 0.24868259397 0.24867485017 0.24866934172 0.24866632831 0.24866609589 0.24866848096 0.24867408596 
0.24868205278 0.24869353923 0.24870816198 0.24872654322 0.24874888407 0.24877595258 0.24880827095 0.24884630214 0.24888890128 
0.24893673547 0.24898954748 0.25306320657 0.25306708666 0.25306743941 0.25306319632 0.25305487405 0.25304252685 0.25302736586 
0.25300962986 0.2529908533 0.25297189862 0.25295394349 0.25293797951 0.25292393558 0.25291174182 0.25290221416 0.25289452898 
0.25288844947 0.25288301935 0.25287806196 0.25287272011 0.25286634722 0.25285867646 0.25284946349 0.25283827749 0.25282498563 
0.25280964825 0.25279356851 0.25277651165 0.25275905659 0.25274219101 0.252725924 0.25271116732 0.25269887978 0.25268969179 
0.2526836505 0.25268072663 0.25268151816 0.25268599015 0.25269436195 0.25270649379 0.25272213453 0.25274213497 0.25276654241 
0.25279581832 0.25283063455 0.25287155912 0.25291875049 0.25297151278 0.25303018951 0.25309387173 0.25808851183 0.25809351513 
0.25809404965 0.25808914012 0.25807961454 0.25806536351 0.25804753422 0.25802697471 0.2580049939 0.25798329783 0.25796325427 
0.25794530668 0.25793015764 0.25791780929 0.2579085247 0.25790151742 0.25789633814 0.25789238797 0.25788832092 0.25788330531 
0.25787750488 0.25786961648 0.25785932402 0.25784616254 0.25783064536 0.25781277488 0.25779318644 0.25777212178 0.25775068366 
0.25772991423 0.25770977064 0.25769212985 0.25767745345 0.25766647271 0.25765981373 0.25765704123 0.25765887399 0.25766547305 
0.25767684134 0.25769332272 0.25771418513 0.25774044559 0.2577720905 0.25780932879 0.2578531664 0.25790386466 0.25796200838 
0.25802656407 0.25809727375 0.25817418456 0.2641074055 0.26411344522 0.26411406174 0.26410874999 0.26409732419 0.26408060488 
0.26405989153 0.2640359823 0.26401052492 0.26398574631 0.26396285146 0.26394299648 0.26392672197 0.26391419398 0.2639052604 
0.26389919756 0.26389519511 0.26389288903 0.2638897558 0.26388582989 0.2638800261 0.26387206251 0.26386030504 0.26384510079 
0.26382677038 0.26380601628 0.26378182942 0.26375614473 0.26373024848 0.26370477093 0.2636810555 0.26365951616 0.26364214052 
0.26362982881 0.26362199384 0.26361959396 0.26362285292 0.26363205512 0.26364685457 0.26366808845 0.26369520182 0.26372794778 
0.26376788562 0.26381421607 0.26386855912 0.26393098407 0.26400176058 0.2640795393 0.26416366323 0.26425390666 0.27114524344 
0.27115174332 0.2711528186 0.27114657638 0.27113329741 0.27111368181 0.27108915323 0.27106118882 0.27103241572 0.27100372021 
0.27097798182 0.27095593886 0.2709383959 0.27092561446 0.27091694482 0.27091249196 0.27091064364 0.27090946906 0.27090793097 
0.2709051006 0.27089946538 0.27089028064 0.27087696838 0.27085980693 0.27083864255 0.27081339911 0.27078469111 0.27075407495 
0.27072320003 0.27069233243 0.27066442646 0.27063940836 0.27061894895 0.27060437226 0.27059588156 0.27059390978 0.27059878579 
0.27061078861 0.27062971516 0.27065630681 0.27068966191 0.27073043009 0.27077941199 0.27083636462 0.27090273269 0.27097812358 
0.27106210882 0.27115489928 0.27125390928 0.27135938751 0.27922588106 0.27923289162 0.2792338061 0.27922638644 0.27921095188 
0.27918820394 0.27915941057 0.27912711151 0.27909370312 0.27906137431 0.27903221093 0.2790077724 0.27898897701 0.27897580372 
0.27896806158 0.27896503564 0.27896483743 0.27896559918 0.27896568194 0.27896345182 0.27895814513 0.27894787509 0.27893345025 
0.27891362662 0.27888856121 0.27885862546 0.278825331 0.278789133 0.27875255464 0.27871669704 0.27868345488 0.27865504336 
0.27863173531 0.278615088 0.27860575583 0.27860452865 0.27861123282 0.27862650106 0.27864967677 0.27868155464 0.27872253402 
0.27877193392 0.2788311981 0.27889957505 0.27897922959 0.27906829337 0.27916727452 0.27927587567 0.27939082578 0.27951238894 
0.28836804089 0.28837559592 0.2883759122 0.28836695554 0.28834868933 0.28832232767 0.28828893532 0.28825196249 0.28821370052 
0.28817731318 0.28814452213 0.28811729616 0.28809710536 0.28808384359 0.28807677903 0.28807494486 0.28807653843 0.28807914856 
0.28808088619 0.28807963094 0.28807401093 0.2880635182 0.2880465894 0.28802364633 0.28799479452 0.28796039382 0.28792186828 
0.28788031056 0.28783773545 0.28779677879 0.28775931863 0.28772684159 0.28770016866 0.28768179724 0.28767201812 0.28767159992 
0.28768060875 0.28769895747 0.28772686355 0.28776497001 0.28781324824 0.28787209708 0.28794203528 0.28802345734 0.28811634521 
0.28822034948 0.28833538518 0.28846018527 0.28859169094 0.28872969618 0.29858238225 0.29859026926 0.29858969764 0.29857881765 
0.29855758149 0.29852706475 0.29848900486 0.29844704278 0.29840368631 0.29836264302 0.29832587555 0.29829573707 0.29827392354 
0.29825996509 0.29825345263 0.29825313827 0.29825628453 0.29826058232 0.29826381914 0.29826325159 0.29825804912 0.29824619528 
0.29822717403 0.29820099125 0.29816795509 0.29812905658 0.2980854669 0.29803892524 0.29799087235 0.29794510415 0.29790307572 
0.2978667748 0.29783809317 0.29781790538 0.29780802725 0.29780821482 0.29781968267 0.29784178821 0.2978745024 0.29791889005 
0.29797492866 0.29804337096 0.29812435234 0.29821829889 0.29832545714 0.29844503345 0.29857581783 0.29871687898 0.2988651377 
0.29901879416 0.30986865735 0.30987605369 0.30987381196 0.30986102441 0.30983637348 0.30980161178 0.30975887736 0.30971163679 
0.30966327209 0.30961707552 0.30957633153 0.30954325255 0.30951944162 0.30950421926 0.30949796611 0.30949822077 0.30950277478 
0.30950849106 0.30951244863 0.30951323674 0.30950757868 0.30949458371 0.30947346962 0.30944464255 0.30940792386 0.3093645281 
0.30931623407 0.30926501069 0.30921263982 0.30916243064 0.30911690736 0.30907749192 0.30904674054 0.30902587307 0.30901586816 
0.30901710843 0.30903117089 0.30905644985 0.30909465944 0.30914540926 0.30920945395 0.30928747252 0.30937923728 0.30948562059 
0.30960661884 0.30974101581 0.30988745416 0.31004384854 0.3102072621 0.31037565671 0.32221200823 0.32221830673 0.32221416584 
0.322198662 0.32217056347 0.32213131352 0.32208381048 0.32203128014 0.3219777231 0.32192665894 0.32188199591 0.32184554314 
0.3218189941 0.32180230262 0.32179523005 0.32179555188 0.32180071033 0.32180678952 0.32181208494 0.32181253794 0.32180694699 
0.32179291697 0.32177023811 0.32173874039 0.32169901459 0.32165244774 0.32160025482 0.32154527086 0.32148949666 0.32143589785 
0.32138755035 0.32134626604 0.32131405579 0.32129294862 0.32128373535 0.32128645956 0.32130283193 0.32133233684 0.32137519911 
0.3214325272 0.32150447704 0.32159141639 0.32169383822 0.32181148281 0.32194524399 0.32209302907 0.32225336804 0.32242356061 
0.32260089421 0.32278193887 0.33557937728 0.33558405661 0.33557749118 0.33555876562 0.3355269525 0.33548373225 0.33543122358 
0.33537391271 0.33531534838 0.33525962815 0.33521020762 0.33517045556 0.3351408461 0.33512199539 0.33511337137 0.3351126946 
0.33511687835 0.33512344221 0.3351282897 0.33512855225 0.33512252905 0.33510783145 0.33508413523 0.33505109413 0.33500942054 
0.33496029954 0.33490596285 0.33484865392 0.33479077845 0.33473541979 0.33468535109 0.33464309997 0.33461092834 0.3345901371 
0.33458183707 0.33458737051 0.33460648868 0.33463951409 0.33468745769 0.33475100617 0.33483009789 0.33492506718 0.33503681432 
0.3351646239 0.33530934421 0.33546837045 0.33564047668 0.33582195701 0.33601001938 0.33620067454 0.34991960942 0.34992168896 
0.34991230724 0.34989001699 0.34985443225 0.34980705014 0.34975092112 0.34968853684 0.34962538567 0.34956488162 0.34951121886 
0.34946717548 0.34943370732 0.34941179292 0.34940016028 0.34939743964 0.3494001368 0.34940532185 0.34940928444 0.34940911687 
0.34940278712 0.34938779704 0.34936352631 0.34932996204 0.34928765269 0.34923824487 0.34918310337 0.34912542667 0.34906723016 
0.34901104997 0.34896122488 0.34891967295 0.34888802424 0.34886838622 0.34886218553 0.34887019032 0.3488923377 0.34892963205 
0.34898216522 0.3490508361 0.34913652808 0.34923873095 0.34935849949 0.34949500386 0.34964799661 0.34981548509 0.34999580295 
0.35018546834 0.3503808991 0.35057803866 0.36515926082 0.3651587201 0.36514590426 0.36511980964 0.36508061393 0.36502964349 
0.36496928095 0.36490319912 0.36483546614 0.36477052943 0.36471223312 0.36466338813 0.36462576543 0.36459943231 0.36458444752 
0.36457824249 0.36457798539 0.36458107635 0.36458354652 0.36458254659 0.36457546525 0.36456076546 0.36453698627 0.36450442026 