# vtk DataFile Version 5.1
vtk output
ASCII
DATASET STRUCTURED_POINTS
DIMENSIONS 20 20 20
SPACING 0.005 0.005 0.005
ORIGIN 0.2189 -0.051172 0.02882
POINT_DATA 8000
FIELD FieldData 1
potential 1 8000 double
0.0012205061178 0.001195375598 0.0011709190618 0.0011471641165 0.0011241651271 0.0011019654559 0.0010805817723 0.0010600082237 0.0010402204807 
0.0010211984104 0.0010029062139 0.00098529981007 0.00096832592868 0.00095192189037 0.00093603069437 0.0009205943358 0.00090556323861 0.00089089637091 
0.00087656857136 0.0008625445983 0.0012128917532 0.001188098064 0.0011639748843 0.001140563544 0.0011179160798 0.0010960677029 0.0010750262911 
0.0010547661235 0.0010352699615 0.0010164983087 0.00099841884536 0.00098099555939 0.00096418474513 0.00094793144548 0.0009321763854 0.00091685512678 
0.00090193167351 0.00088734937156 0.00087308595151 0.0008591069222 0.0012018766411 0.0011775095956 0.001153809937 0.0011308178563 0.0011085866015 
0.0010871499116 0.0010665067634 0.0010466257578 0.0010274735282 0.0010090063181 0.00099119165324 0.0009739981814 0.00095738786581 0.0009413162801 
0.00092572943082 0.00091056083979 0.0008957650826 0.0008812882863 0.00086710084049 0.00085320961308 0.0011871880434 0.0011633456338 0.0011401635125 
0.0011176772201 0.0010959405931 0.0010749835904 0.0010548001708 0.0010353516473 0.0010165988263 0.00099849043794 0.00098098711511 0.00096406931773 
0.00094770504862 0.0009318532997 0.00091646447425 0.00090147495199 0.00088682668035 0.00087248981977 0.00085843533278 0.00084466085335 0.0011695453689 
0.0011463042785 0.0011237133608 0.0011018142685 0.0010806380034 0.0010602131539 0.0010405338708 0.0010215575457 0.0010032337053 0.00098551554145 
0.00096836443673 0.0009517542002 0.00093566366883 0.0009200556899 0.00090488513699 0.00089008470237 0.00087562838892 0.00086147112103 0.00084758450771 
0.00083397370851 0.0011503019713 0.0011277055312 0.0011057522786 0.001084476291 0.0010638967847 0.0010440279111 0.0010248674154 0.0010063686403 
0.00098848416519 0.00097116413759 0.00095437122059 0.00093808116781 0.00092227329823 0.00090691576009 0.00089196203994 0.00087738098556 0.00086312974164 
0.00084917544256 0.00083549318418 0.0008220875792 0.001130886017 0.0011089292619 0.001087610874 0.0010669540264 0.0010469617912 0.0010276445301 
0.001008985016 0.00099094226727 0.00097347426221 0.00095653489546 0.00094008807988 0.00092410831678 0.00090856548377 0.0008934528512 0.0008787331105 
0.00086436584766 0.00085033089692 0.00083659782597 0.00082314580962 0.00080997097784 0.001112368879 0.0010910062078 0.0010702819091 0.0010501998718 
0.001030749538 0.0010119330048 0.00099373059719 0.00097610254181 0.00095901420519 0.00094242100697 0.00092629040698 0.00091058686449 0.0008953087971 
0.00088043076538 0.00086592663848 0.00085178260352 0.0008379694116 0.0008244682333 0.00081125907162 0.00079833303888 0.0010953393594 0.0010745091825 
0.0010543056649 0.001034720371 0.0010157466438 0.0009973640023 0.00097955091816 0.00096228352258 0.0009455243685 0.0009292261214 0.00091337419254 
0.0008979351719 0.0008828924666 0.00086823756147 0.00085395287263 0.00084003013679 0.00082644482524 0.00081317839969 0.000800221635 0.00078755293251 
0.0010800204187 0.001059652214 0.001039896564 0.0010207287784 0.001002142695 0.00098411437341 0.00096662108272 0.00094964648865 0.00093315365161 
0.00091712411746 0.00090151673354 0.00088630576521 0.00087148398367 0.00085704621745 0.00084298248399 0.00082928466302 0.00081592847987 0.00080290457576 
0.00079020021838 0.00077778872725 0.0010664541677 0.0010464835433 0.0010271000325 0.0010082706751 0.00098999137855 0.00097223558058 0.00095498291052 
0.00093824019717 0.00092198128809 0.00090617066962 0.00089078096257 0.00087578526693 0.00086117653225 0.00084695512032 0.00083311102353 0.00081964028419 
0.00080652017426 0.00079373783646 0.00078128240263 0.00076912844624 0.0010546243076 0.001034990691 0.0010159125188 0.00099735520588 0.00097930716223 
0.00096176116346 0.00094470921737 0.00092815125842 0.0009120764261 0.00089645858324 0.00088126979348 0.00086648075877 0.00085208644541 0.00083808436279 
0.00082446460414 0.00081122131112 0.00079833197365 0.00078578456273 0.00077357006602 0.00076166297534 0.0010445136448 0.0010251657241 0.001006339306 
0.00098799466212 0.00097014396172 0.00095276774159 0.00093587281594 0.00091947214353 0.00090356207528 0.00088811902461 0.00087312121603 0.00085853957017 
0.00084436269495 0.0008305802322 0.00081718903132 0.00080416843868 0.00079150143145 0.00077917767663 0.00076718655219 0.00075550762161 0.0010360903321 
0.0010169783867 0.00099836363692 0.00098020948476 0.00096252092356 0.00094529049921 0.00092854538598 0.00091229440186 0.00089653874056 0.00088126549015 
0.00086645408376 0.00085207947939 0.00083812439228 0.00082456732963 0.00081140050446 0.00079859581449 0.0007861423414 0.00077402389474 0.00076222984735 
0.00075074697881 0.0010292278054 0.0010103272077 0.00099189032948 0.00097389743359 0.00095635614794 0.00093928273275 0.00092268857754 0.0009065908262 
0.0008909933206 0.00087588888503 0.00086126370312 0.00084709564149 0.00083336194916 0.00082003357773 0.00080708607926 0.00079449281143 0.00078223289488 
0.00077029629708 0.00075867235239 0.00074735379981 0.0010235894813 0.0010048699736 0.00098658853067 0.00096874932575 0.00095136411989 0.00093445359227 
0.00091802509814 0.00090209381372 0.00088666498547 0.00087173505014 0.00085729878428 0.00084333754763 0.00082982115894 0.00081671399559 0.00080398328887 
0.00079159009355 0.00077951159736 0.00076773661562 0.00075625726944 0.0007450728985 0.0010184523803 0.00099990279559 0.00098178238359 0.00096410573296 
0.00094689109242 0.00093016612172 0.00091392575926 0.0008981832574 0.00088294517809 0.00086820663381 0.00085396561056 0.00084020791317 0.00082690099289 
0.00081401098238 0.00080148799289 0.00078928776125 0.00077737953499 0.00076575104171 0.00075440233257 0.0007433329055 0.0010127161356 0.00099436263362 
0.00097642944335 0.00095894557612 0.00094193534597 0.00092542566226 0.000909406228 0.00089388727762 0.00087886582871 0.00086434367379 0.00085031514416 
0.00083676907321 0.00082367120224 0.00081098679593 0.00079866142077 0.0007866449559 0.00077490533145 0.00076342689124 0.00075221074597 0.00074125821312 
0.0010051412938 0.00098703462618 0.00096934269267 0.00095210209604 0.00093534065536 0.0009190860484 0.00090333044571 0.00088807506661 0.00087331424488 
0.00085904263923 0.00084525231429 0.00083193090013 0.00081904644483 0.0008065637614 0.00079443159729 0.00078260127602 0.00077103910706 0.00075972687822 
0.00074866275768 0.0007378479901 0.0009947879358 0.00097699505331 0.00095961475489 0.0009426795386 0.00092622596331 0.000910277353 0.00089482868573 
0.00087988066673 0.00086542028611 0.00085143426879 0.00083790746297 0.00082482664608 0.0008121723145 0.00079990077074 0.00078797071814 0.00077633926402 
0.0007649743293 0.00075385460876 0.00074297283842 0.00073232684053 0.0014064924489 0.0013778564929 0.001350033262 0.0013230195326 0.0012968393288 
0.0012715144662 0.0012470491154 0.0012234305325 0.0012006504333 0.001178676421 0.0011574720442 0.0011369975057 0.0011172054339 0.0010980433829 
0.0010794614927 0.0010614103907 0.00104384329 0.0010267250276 0.0010100223075 0.00099370437304 0.0013952066695 0.0013670042441 0.001339606694 
0.0013130171416 0.0012872582946 0.0012623435132 0.0012382732603 0.0012150263965 0.0011925902362 0.0011709281869 0.0011500062591 0.0011297863756 
0.00111022725 0.0010912806924 0.0010728932593 0.0010550203485 0.0010376248783 0.0010206571952 0.0010040904455 0.00098789069781 0.0013817984623 
0.0013540846218 0.0013271685089 0.0013010499468 0.0012757514695 0.0012512844561 0.0012276442087 0.0012048050968 0.0011827436549 0.0011614244781 
0.0011408145452 0.001120877591 0.0011015727086 0.0010828602098 0.0010646929512 0.0010470190864 0.001029805314 0.0010130030547 0.00099657885053 
0.0009805329643 0.0013661195419 0.0013389510326 0.0013125700973 0.0012869736976 0.0012621825926 0.0012382036804 0.0012150289707 0.0011926272887 
0.0011709741949 0.0011500313165 0.0011297586991 0.0011101295394 0.0010911076594 0.0010726521611 0.0010547218844 0.0010372669727 0.0010202432658 
0.0010036287662 0.00098738977449 0.00097151287165 0.0013485435261 0.0013219653118 0.0012961595445 0.001271133605 0.0012468848559 0.001223426425 
0.0012007438629 0.0011788037737 0.0011575798475 0.0011370317463 0.0011171224082 0.001097821275 0.0010790977587 0.0010609153924 0.0010432367438 
0.0010260060488 0.0010092129821 0.00099280978686 0.0009767737105 0.00096109355743 0.0013298136503 0.0013038521699 0.0012786514949 0.0012542131743 
0.0012305299935 0.0012076028555 0.0011854210145 0.0011639516038 0.0011431623833 0.0011230142407 0.001103472493 0.0010845071592 0.0010660900627 
0.0010481886171 0.0010307620045 0.0010137864121 0.00099722791834 0.00098105657538 0.00096524508757 0.00094978716326 0.0013107812979 0.0012854355218 
0.0012608383749 0.001236984769 0.0012138595736 0.0011914614227 0.0011697724319 0.0011487598221 0.0011283920198 0.0011086353238 0.0010894543234 
0.001070819183 0.0010526965285 0.0010350770066 0.0010179191369 0.0010012006355 0.00098488794466 0.0009689606666 0.00095339328286 0.00093817595931 
0.0012921754285 0.0012674232822 0.0012434036656 0.0012201079177 0.0011975113917 0.0011756105873 0.0011543839402 0.0011338008223 0.001113832777 
0.0010944450865 0.0010756068697 0.0010572821122 0.0010394630031 0.0010221199528 0.0010052240962 0.00098876141105 0.00097270230255 0.00095702773963 
0.0009417163307 0.00092675397776 0.0012744935756 0.0012502938302 0.0012268075576 0.00120402272 0.0011819105054 0.0011604628166 0.001139653812 
0.001119465761 0.0010998645312 0.0010808094621 0.001062290701 0.001044274326 0.0010267381138 0.0010096638068 0.0009930300991 0.00097682554933 
0.00096102319017 0.00094560450505 0.00093055740399 0.00091585830041 0.001258010008 0.0012343142287 0.0012113133716 0.0011889781779 0.0011673001994 
0.0011462523722 0.0011258170688 0.0011059787858 0.0010866983071 0.0010679645707 0.0010497418401 0.0010320080681 0.0010147413892 0.00099793232702 
0.0009815572388 0.00096561040713 0.00095006843908 0.00093491070508 0.00092012852519 0.00090569253076 0.0012428528235 0.0012196128459 0.0011970434765 
0.0011751103063 0.0011538071728 0.0011331082377 0.0011129898289 0.0010934567 0.001074478988 0.0010560274479 0.0010380817871 0.0010206161065 
0.001003614612 0.00098706413289 0.000970949236 0.00095526143749 0.00093997862731 0.00092508267005 0.00091056129733 0.00089638781442 0.0012290594268 
0.00120622903 0.0011840423659 0.0011624631087 0.0011414800023 0.0011210843575 0.0011012604508 0.0010819999556 0.0010632864403 0.0010450968157 
0.0010274123406 0.0010102060544 0.00099346426149 0.00097716952769 0.00096131691014 0.00094588537105 0.0009308578194 0.00091621637049 0.00090195020307 
0.00088803340008 0.0012166118136 0.0011941516493 0.0011722985467 0.0011510346526 0.0011303503852 0.0011102232676 0.0010906596526 0.001071649813 
0.0010531843676 0.0010352417747 0.0010178076709 0.0010008558568 0.00098437150442 0.00096833606507 0.00095273897996 0.00093755914191 0.00092278042138 
0.00090838518636 0.00089436211704 0.00088068982096 0.0012054339862 0.0011833034104 0.0011617675632 0.0011407903071 0.0011203731405 0.001100498139 
0.0010811776406 0.0010624059681 0.0010441790041 0.0010264772521 0.0010092886157 0.0009925887999 0.00097636171837 0.00096058166655 0.00094523780876 
0.00093030477268 0.00091576844423 0.00090160757021 0.00088781002707 0.00087436226742 0.0011953407914 0.0011735334273 0.0011522805226 0.0011315723279 
0.0011114037234 0.0010917820306 0.001072702186 0.0010541687243 0.001036177001 0.0010187146656 0.0010017705508 0.00098532246017 0.00096934992168 
0.0009538255429 0.00093873044262 0.00092403843184 0.00090973029937 0.00089578937034 0.00088220317297 0.0008689584815 0.0011860114029 0.0011644985647 
0.0011435209659 0.0011230746633 0.0011031623183 0.0010837926781 0.0010649596891 0.0010466705458 0.0010289215763 0.0010117017146 0.00099500611204 
0.00097880933471 0.00096308572306 0.00094781504453 0.00093296487492 0.00091850645998 0.00090441914298 0.00089068669779 0.00087729576294 0.00086423724148 
0.0011768996264 0.0011556805559 0.0011349823234 0.0011148062637 0.0010951571686 0.0010760542708 0.0010574835752 0.0010394549044 0.0010219611888 
0.001004995789 0.00098855124515 0.00097260720024 0.00095713540037 0.00094211222756 0.00092750295944 0.00091327406249 0.00089940158217 0.00088586771936 
0.00087266276064 0.00085977692253 0.0011673090105 0.0011463998008 0.0011259980801 0.0011061125624 0.0010867524024 0.0010679355845 0.0010496500431 
0.0010319001558 0.0010146819983 0.00099798789187 0.0009818051297 0.00096612043838 0.00095090084202 0.00093612391314 0.00092175157484 0.00090774833373 
0.00089408939108 0.00088075595984 0.00086773771834 0.00085502479083 0.0011565255738 0.0011359579281 0.001115885183 0.001096321469 0.0010772796265 
0.0010587765473 0.0010408031329 0.0010233603054 0.0010064416777 0.00099003696896 0.00097413359467 0.00095871544758 0.0009437546041 0.00092922598346 
0.00091509128645 0.00090131723071 0.00088787707766 0.0008747519238 0.00086192999572 0.00084940104733 0.0011440319738 0.0011238437878 0.0011041450663 
0.0010849421956 0.0010662564712 0.0010481006099 0.0010304679682 0.0010133585146 0.00099676204191 0.00098066867407 0.00096505910367 0.00094991766019 
0.00093522730993 0.00092095337477 0.00090706321845 0.00089352660676 0.00088031665891 0.00086741346141 0.00085480222172 0.00084247370784 0.0015932202055 
0.0015610392358 0.001529788026 0.0014994579394 0.0014700515543 0.0014415693935 0.0014140049221 0.0013873406091 0.0013615660241 0.0013366485231 
0.0013125512353 0.0012892368376 0.0012666607689 0.0012447777269 0.0012235424591 0.001202909908 0.0011828373452 0.0011632922487 0.0011442371769 
0.0011256442905 0.0015789427848 0.0015472686862 0.0015165220257 0.0014866837684 0.001457755599 0.0014297357983 0.0014026159449 0.0013763724225 
0.0013509920768 0.0013264400912 0.0013026828134 0.001279680469 0.0012573957703 0.0012357844288 0.0012147973642 0.0011944007467 0.0011745506928 
0.0011552107439 0.0011363484817 0.0011179301423 0.0015633153132 0.0015321878308 0.001501975815 0.0014726548511 0.0014442307585 0.0014166965845 
0.001390041494 0.0013642387942 0.0013392725462 0.0013151033328 0.0012917017999 0.001269030915 0.0012470484188 0.001225720078 0.0012050001913 
0.001184847111 0.0011652310825 0.0011460967096 0.0011274403792 0.0011092266967 0.0015462498726 0.0015157025726 0.0014860548059 0.0014572836383 
0.0014293901807 0.0014023662051 0.0013761974245 0.0013508548518 0.0013263185065 0.0013025535961 0.0012795226045 0.0012571962021 0.0012355355807 
0.0012145034288 0.0011940623248 0.0011741688916 0.001154787141 0.0011358943924 0.0011174568124 0.0010994556193 0.0015279511575 0.0014980113801 
0.0014689497303 0.0014407578211 0.0014134143279 0.0013869179657 0.001361251734 0.0013363821834 0.0013122905795 0.0012889407476 0.0012662964125 
0.0012443267874 0.0012229973582 0.0012022732894 0.0011821204314 0.0011624885974 0.0011433753564 0.0011247283899 0.0011065285616 0.0010887572504 
0.0015088473691 0.001479529536 0.0014510745418 0.0014234687236 0.0013966863455 0.0013707264967 0.0013455658764 0.0013211776842 0.0012975332303 
0.0012746013521 0.0012523468802 0.001230739037 0.0012097460829 0.0011893275586 0.0011694709054 0.0011501297969 0.0011312823696 0.001112898367 
0.0010949517913 0.0010774271421 0.0014894614018 0.0014607651484 0.0014329145536 0.0014058927434 0.0013796703796 0.0013542413535 0.001329581823 
0.0013056637158 0.0012824599378 0.0012599403315 0.0012380713634 0.001216823268 0.0011961562316 0.0011760639447 0.0011565026215 0.0011374535243 
0.0011188833399 0.0011007692583 0.0010830885911 0.0010658245666 0.0014702850331 0.0014421988203 0.0014149360485 0.0013884786543 0.0013627957699 
0.0013378771304 0.00131369501 0.0012902334583 0.0012674552499 0.0012453339406 0.0012238396744 0.0012029345256 0.0011826091696 0.0011628305588 
0.0011435700484 0.0011248107443 0.0011065232016 0.0010886885355 0.0010712815521 0.0010542872133 0.0014517014473 0.0014241971081 0.0013974951641 
0.0013715702743 0.0013463964421 0.0013219583975 0.0012982315004 0.001275196596 0.0012528234916 0.0012310718921 0.0012099361731 0.0011893804227 
0.0011693781794 0.0011499099504 0.001130948966 0.0011124811516 0.001094479802 0.0010769242789 0.001059800231 0.0010430832476 0.0014339605038 
0.0014070029138 0.0013808252217 0.0013553939373 0.0013306967979 0.0013067057371 0.0012833993891 0.0012607542659 0.0012387581921 0.001217375862 
0.001196584678 0.0011763549499 0.0011566679605 0.0011375054217 0.001118841204 0.0011006644962 0.0010829507768 0.0010656794037 0.0010488387258 
0.0010323980763 0.0014172047022 0.0013907592324 0.0013650696623 0.0013400971617 0.0013158367563 0.001292256033 0.0012693299006 0.0012470616255 
0.0012254191894 0.0012043753033 0.0011839101422 0.001163999065 0.0011446200653 0.0011257578237 0.0011073888731 0.0010895024838 0.0010720761793 
0.0010550884235 0.0010385258805 0.001022362499 0.0014014915724 0.0013755237048 0.0013502852046 0.0013257392301 0.0013018714857 0.001278668857 
0.0012561113982 0.001234187028 0.0012128751256 0.0011921530806 0.001172003844 0.0011524014044 0.0011333262539 0.0011147573074 0.0010966847099 
0.0010790867803 0.0010619417767 0.001045231995 0.0010289452937 0.0010130549787 0.0013868074494 0.0013612857353 0.0013364618472 0.0013123108197 
0.0012888245858 0.0012659734978 0.0012437568217 0.0012221581694 0.001201163654 0.0011807514594 0.0011609080748 0.0011416067939 0.0011228311299 
0.0011045577868 0.0010867751724 0.0010694592476 0.0010525919997 0.0010361551907 0.001020134429 0.0010045081592 0.0013730637386 0.0013479639552 
0.0013235418751 0.0012997670241 0.0012766339035 0.0012541201884 0.0012322271149 0.0012109433152 0.0011902569527 0.0011701481316 0.0011506053689 
0.0011316018529 0.0011131217662 0.001095140863 0.0010776430159 0.0010606059059 0.0010440120901 0.0010278390955 0.0010120730307 0.00099669934198 
0.0013601038831 0.0013354122922 0.001311366188 0.0012879502452 0.0012651593832 0.0012429753725 0.0012214018266 0.0012004289173 0.0011800468524 
0.0011602390727 0.0011409937396 0.0011222884465 0.0011041010267 0.0010864094035 0.0010691940002 0.001052430866 0.0010360996304 0.0010201820274 
0.0010046617921 0.00098952600896 0.0013476487939 0.0013233480331 0.0012996721411 0.0012766104312 0.0012541551381 0.0012323076359 0.0012110546563 
0.0011903950611 0.0011703198917 0.0011508151114 0.0011318696204 0.001113460625 0.0010955625231 0.0010781591307 0.0010612228942 0.0010447275098 
0.0010286545352 0.001012983822 0.00099770059481 0.00098279141332 0.0013353103953 0.0013114016704 0.001288098563 0.0012653937131 0.001243283529 
0.0012217762584 0.0012008531927 0.0011805178721 0.0011607574514 0.0011415609447 0.0011229170629 0.0011048057555 0.0010871987293 0.0010700808628 
0.001053420561 0.0010371913355 0.0010213719452 0.001005942525 0.00099088913639 0.00097619694762 0.0013226415597 0.001299133281 0.0012762143704 
0.0012538808492 0.0012321318939 0.0012109769142 0.0011903982957 0.0011703959786 0.0011509623247 0.0011320836249 0.0011137503456 0.0010959409762 
0.0010786280039 0.0010617949702 0.0010454091701 0.0010294439133 0.0010138771285 0.00099869028748 0.00098386571511 0.00096939119052 0.0013092189786 
0.0012861256253 0.0012636102395 0.0012416670314 0.0012202974024 0.0011995120007 0.0011792936594 0.0011596432411 0.0011405513172 0.0011220050057 
0.001103988411 0.0010864827458 0.0010694720546 0.0010529259796 0.0010368171474 0.0010211185725 0.0010058074309 0.00099086519511 0.00097627455907 
0.00096202233582 0.0012947275756 0.0012720799481 0.0012499956796 0.0012284660146 0.0012075012251 0.0011871055456 0.0011672672433 0.001147984897 
0.0011292482031 0.0011110451712 0.0010933566525 0.0010761675056 0.0010594596604 0.0010432047902 0.0010273766885 0.001011950172 0.00099690092415 
0.00098221021293 0.00096786199536 0.00095384016999 0.0017800191475 0.0017442758533 0.001709582214 0.0016759130105 0.0016432596435 0.0016116081752 
0.0015809428082 0.0015512387821 0.0015224838007 0.0014946415623 0.0014676782611 0.0014415554894 0.001416231538 0.0013916639533 0.001367810848 
0.0013446321908 0.0013220850359 0.0013001369728 0.0012787527093 0.001257903308 0.0017631503229 0.0017279838281 0.0016938568158 0.001660738123 
0.001628616678 0.0015974767245 0.0015673025135 0.0015380658158 0.0015097522741 0.0014823249687 0.0014557508591 0.001429991092 0.0014050094002 
0.0013807630929 0.0013572083071 0.0013343130332 0.0013120363343 0.0012903426548 0.0012691994272 0.001248570663 0.0017454145071 0.001710849189 
0.0016773083031 0.0016447557171 0.0016131806554 0.0015825666077 0.0015528952079 0.0015241376168 0.0014962765286 0.001469273449 0.0014430982254 
0.0014177135583 0.0013930793138 0.0013691623198 0.001345918901 0.0013233122458 0.0013013145117 0.0012798718316 0.0012589778374 0.0012385990898 
0.0017267571258 0.0016928143308 0.001659876081 0.0016279072325 0.0015968943833 0.0015668202191 0.001537662852 0.0015093972431 0.0014819979099 
0.0014554295137 0.001429663305 0.001404661433 0.0013803886685 0.0013568078329 0.0013338846144 0.0013115782307 0.0012898554018 0.0012686944008 
0.0012480600967 0.0012279318563 0.0017072951913 0.0016739915936 0.0016416712441 0.0016103000521 0.0015798592479 0.0015503357082 0.0015217050806 
0.0014939344443 0.0014670055068 0.0014408828854 0.001415532658 0.0013909212608 0.0013670145834 0.001343778634 0.001321180947 0.0012991724842 
0.0012777552026 0.0012568761368 0.0012365145619 0.001216649172 0.0016872864663 0.00165462852 0.0016229300957 0.0015921683029 0.001562306831 
0.0015333371593 0.0015052322396 0.0014779641297 0.0014515065388 0.0014258290331 0.0014008963008 0.0013766780977 0.0013531423 0.0013302467733 
0.0013079765084 0.0012862992857 0.0012651811722 0.0012445961357 0.0012245171286 0.0012049259209 0.0016670593415 0.0016350468962 0.0016039736812 
0.0015738131336 0.0015445303179 0.0015161097035 0.0014885274669 0.0014617532629 0.0014357624106 0.0014105257131 0.0013860096032 0.0013621836354 
0.0013390073846 0.0013164732268 0.0012945374814 0.0012731812708 0.0012523718421 0.0012320860327 0.001212298509 0.0011929912756 0.0016469484331 
0.0016155743583 0.0015851161446 0.0015555414566 0.0015268201419 0.0014989363147 0.00147185976 0.0014455710028 0.0014200360452 0.0013952309887 
0.0013711144051 0.0013476751598 0.0013248776431 0.0013026931933 0.0012810932813 0.0012600607697 0.0012395637174 0.0012195839457 0.0012000938265 
0.0011810769831 0.0016272354032 0.0015964796281 0.0015666145684 0.0015376072343 0.0015094282121 0.0014820588506 0.0014554715924 0.0014296483783 
0.001404555681 0.0013801596647 0.0013564504632 0.0013333911482 0.0013109537309 0.0012891176152 0.0012678527429 0.0012471436013 0.0012269632058 
0.001207288783 0.0011881031512 0.0011693826034 0.0016081231041 0.0015779609904 0.0015486628343 0.0015201931369 0.0014925360313 0.0014656587686 
0.0014395384206 0.0014141511532 0.0013894834338 0.0013654982898 0.0013421748588 0.0013194856066 0.0012974051725 0.0012759123262 0.0012549800197 
0.0012345948755 0.0012147306367 0.0011953654468 0.001176484731 0.0011580593703 0.001589740517 0.0015601459195 0.0015313910546 0.0015034354364 
0.0014762688732 0.0014498569235 0.001424172197 0.0013992172827 0.0013749543717 0.001351359025 0.001328410398 0.0013060819711 0.0012843514818 
0.0012631986377 0.0012425966599 0.0012225332732 0.0012029849806 0.0011839283612 0.001165347741 0.0011472188982 0.0015721460311 0.0015430934537 
0.0015148532951 0.0014873877382 0.0014606788037 0.0014347070225 0.0014094579437 0.0013849061549 0.001361032892 0.0013378135338 0.0013152291391 
0.0012932553947 0.0012718697501 0.0012510470675 0.0012307769436 0.0012110338017 0.001191795521 0.0011730438356 0.0011547626674 0.0011369252977 
0.0015553325061 0.0015267967068 0.0014990420633 0.0014720433299 0.0014457877789 0.0014202400933 0.0013953955733 0.0013712353952 0.001347738955 
0.0013248842044 0.0013026574149 0.0012810313275 0.0012599851111 0.0012394965436 0.0012195498569 0.0012001207653 0.0011811903383 0.0011627382652 
0.0011447491067 0.0011272007387 0.0015392226362 0.0015111885794 0.0014839099936 0.0014573619417 0.0014315339492 0.0014063962754 0.0013819455735 
0.001358165291 0.0013350389179 0.0013125445366 0.0012906675916 0.0012693845006 0.0012486754715 0.001228515217 0.0012088883482 0.0011897731674 
0.0011711447735 0.0011529866872 0.0011352817056 0.001118011723 0.0015236901122 0.0014961408897 0.0014693210578 0.0014432110838 0.0014178013934 
0.0013930664459 0.0013690038154 0.0013455987915 0.0013228371067 0.0013006985004 0.0012791708058 0.0012582286811 0.0012378530321 0.0012180187486 
0.0011987091742 0.0011798994756 0.0011615691976 0.0011436996175 0.0011262724027 0.0011092717661 0.0015085219346 0.001481445978 0.0014550784682 
0.0014294014353 0.001404398955 0.0013800723314 0.001356397568 0.0013333679752 0.0013109706862 0.0012891887064 0.0012680098261 0.0012474086715 
0.0012273608866 0.0012078519197 0.0011888558663 0.0011703496796 0.0011523129399 0.0011347251005 0.0011175695904 0.0011008320692 0.0014934457161 
0.0014668443179 0.0014409281037 0.0014156845693 0.0013910998391 0.0013671777161 0.0013438936141 0.0013212466534 0.0012992180466 0.0012777946008 
0.0012569627433 0.0012367032153 0.00121698633 0.0011978004038 0.0011791163137 0.0011609109378 0.0011431636668 0.0011258541223 0.0011089661533 
0.0010924849477 0.0014781725892 0.0014520484137 0.0014265904665 0.0014017890074 0.0013776304303 0.0013541196238 0.0013312347635 0.0013089721413 
0.0012873193226 0.0012662602037 0.0012457830311 0.0012258650968 0.001206481958 0.001187618452 0.0011692450346 0.0011513399493 0.0011338817113 
0.0011168499661 0.0011002270998 0.0010839983235 0.0014624389108 0.001436798475 0.0014118093842 0.0013874553424 0.0013637368788 0.0013406486872 
0.0013181739103 0.0012963079572 0.0012750397134 0.0012543517086 0.0012342323509 0.0012146576781 0.0011956135396 0.0011770735247 0.0011590129054 
0.0011414088224 0.0011242403042 0.0011074875044 0.0010911321615 0.0010751599927 0.0014460411725 0.0014209124372 0.0013964088104 0.0013725223848 
0.0013492538769 0.0013266010682 0.0013045471545 0.0012830875372 0.0012622124018 0.0012419042392 0.0012221476677 0.0012029241374 0.0011842186779 
0.0011660038616 0.0011482580961 0.0011309580561 0.0011140822635 0.0010976115968 0.0010815283583 0.0010658164222 0.0019664086342 0.0019271121016 
0.0018889775599 0.0018519691965 0.0018160697753 0.0017812518784 0.0017474963427 0.00171476964 0.0016830556394 0.0016523157153 0.0016225161887 
0.0015936183289 0.0015655818516 0.001538367258 0.0015119334157 0.0014862407655 0.001461249152 0.0014369270493 0.0014132381505 0.0013901524219 
0.0019472004636 0.0019085422024 0.0018710338366 0.0018346311648 0.0017993123796 0.0017650562816 0.0017318361264 0.0016996210938 0.0016683934716 
0.0016381146689 0.0016087487904 0.0015802624091 0.0015526145333 0.0015257658852 0.0014996756417 0.0014743111737 0.001449634734 0.0014256085709 
0.0014021931857 0.0013793793956 0.0019274360861 0.0018894354416 0.0018525621823 0.0018167720592 0.0017820447122 0.0017483557106 0.001715678865 
0.00168398262 0.0016532457973 0.0016234336513 0.0015945103707 0.0015664392953 0.0015391821774 0.0015127057505 0.001486969885 0.0014619359273 
0.0014375790999 0.0014138458797 0.0013907302772 0.0013681954495 0.0019070811053 0.0018697481432 0.0018335207385 0.0017983551144 0.0017642272341 
0.0017311126487 0.0016989848284 0.0016678134723 0.0016375771612 0.0016082341122 0.0015797570392 0.0015521080308 0.0015252515085 0.0014991513844 
0.001473773806 0.0014490801206 0.0014250380983 0.001401623993 0.0013788051667 0.0013565565216 0.001886203897 0.0018495499825 0.0018139789033 
0.0017794392087 0.0017459171413 0.0017133844821 0.0016818135093 0.0016511703792 0.0016214334584 0.0015925689095 0.0015645431155 0.0015373201935 
0.0015108664541 0.001485148702 0.0014601329686 0.0014357755263 0.0014120731515 0.001388978068 0.0013664640953 0.0013445108742 0.0018649638083 
0.0018289931744 0.0017940747217 0.0017601780066 0.0017272614722 0.0016953103218 0.0016642958423 0.0016341821469 0.0016049485184 0.0015765606058 
0.0015489853023 0.0015221893677 0.0014961417175 0.0014707993396 0.0014461475355 0.0014221554337 0.0013987860582 0.0013760163483 0.0013538161772 
0.0013321655862 0.0018435797646 0.0018082877849 0.0017740270877 0.0017407588003 0.0017084496904 0.0016770764227 0.0016466092893 0.0016170248813 
0.0015882898252 0.0015603757168 0.001533250101 0.0015068808355 0.0014812290001 0.0014562821015 0.0014320003579 0.0014083617184 0.0013853326346 
0.0013628927016 0.0013410115897 0.0013196699566 0.0018222724566 0.0017876564543 0.0017540424093 0.0017213951892 0.0016896805342 0.0016588758133 
0.0016289506578 0.001599882659 0.0015716375498 0.0015441905768 0.0015174999836 0.0014915534168 0.001466314709 0.0014417550008 0.0014178427712 
0.0013945596249 0.0013718751179 0.0013497690993 0.0013282104621 0.0013071839169 0.0018012496536 0.0017672928291 0.0017343122135 0.0017022715053 
0.0016711360942 0.0016408846202 0.001611487367 0.0015829233815 0.0015551587224 0.0015281598644 0.0015019149157 0.0014763867191 0.0014515467289 
0.0014273707967 0.0014038275378 0.0013809008922 0.0013585622047 0.0013367918466 0.001315559889 0.0012948521223 0.0017806655277 0.0017473505161 
0.0017149849238 0.0016835315384 0.0016529581798 0.0016232432302 0.001594357911 0.0015662742183 0.0015389783015 0.0015124333712 0.0014866167972 
0.0014614981067 0.0014370525387 0.0014132567947 0.0013900817591 0.001367511506 0.0013455179966 0.001324081693 0.0013031800468 0.0012827893424 
0.0017606277157 0.0017279341887 0.0016961629044 0.0016652728752 0.0016352476663 0.0016060429888 0.0015776518305 0.0015500499775 0.0015232080976 
0.0014970990208 0.001471700861 0.0014469855542 0.00142293043 0.0013995064174 0.0013767001229 0.001354483968 0.0013328358683 0.001311733041 
0.0012911587875 0.0012710858334 0.0017411860754 0.0017090947494 0.0016778999878 0.0016475578974 0.00161804924 0.0015893498362 0.00156144269 
0.0015342997064 0.0015078984269 0.0014822152118 0.0014572273351 0.0014329090503 0.0014092382259 0.0013861877104 0.001363744261 0.0013418784363 