# vtk DataFile Version 5.1
vtk output
ASCII
DATASET STRUCTURED_POINTS
DIMENSIONS 50 50 50
SPACING 0.002 0.002 0.002
ORIGIN 0.2174 -0.052672 0.02732
POINT_DATA 125000
FIELD FieldData 1
potential 1 125000 double
0.032001108412 0.031432278958 0.030865622813 0.030301322362 0.029740591972 0.02918332145 0.028630297759 0.028082033606 0.027539087574 
0.027001961616 0.026471142407 0.02594699525 0.025429899339 0.024919971592 0.024417935178 0.023923710466 0.023437429501 0.022959089028 
0.022488890726 0.022026882094 0.021573047562 0.021127345511 0.020689816896 0.020260536831 0.019839462731 0.019426766974 0.019022438968 
0.0186264891 0.018238974348 0.01785990873 0.017489275886 0.017127041867 0.016773154755 0.016427481783 0.016089807575 0.015760477997 
0.015438909845 0.015125073336 0.014818961242 0.014520105448 0.014228515092 0.013944229327 0.013666955116 0.013396898404 0.013133334865 
0.01287631273 0.012625767596 0.012381493845 0.012143262773 0.011910944632 0.03106275496 0.030521642628 0.029982688277 0.029445576659 
0.028911499709 0.028380716355 0.027853805306 0.027331261571 0.026813563773 0.026301259838 0.025794667491 0.025294264668 0.024800106827 
0.02431304696 0.023832989054 0.023360033292 0.022894539133 0.022436402261 0.021985804758 0.021542699726 0.021107154595 0.020679131246 
0.020258696442 0.0198459072 0.019440736921 0.01904338569 0.01865383534 0.018272132792 0.01789833431 0.017532466275 0.017174531415 
0.016824465264 0.016482249704 0.016148037535 0.015821218853 0.015502150718 0.015190527271 0.01488637353 0.014589193893 0.014299144421 
0.014015980396 0.013740056076 0.013470553975 0.013207576353 0.012951030369 0.012700855178 0.012456851409 0.012218838796 0.011986663964 
0.01175998973 0.030160455395 0.029645256407 0.02913157165 0.028620067633 0.028111195775 0.027605306342 0.02710295194 0.026604583509 
0.026110644767 0.025621667293 0.025137961546 0.024659704103 0.024187694066 0.023721825052 0.023262585448 0.022810006924 0.022364120113 
0.021925158473 0.021493094517 0.021067997439 0.02064982808 0.020238647086 0.019834525351 0.019437431721 0.019047559021 0.018664902648 
0.01828954977 0.017921556662 0.017560907738 0.017207783755 0.016862121505 0.016524065012 0.016193216846 0.015869613415 0.015553430533 
0.015244441466 0.014942553057 0.014647607026 0.014359343463 0.014078145444 0.013803188597 0.013534838094 0.013272822702 0.013017064942 
0.012767457446 0.012523927797 0.012286310407 0.012054426091 0.011828119275 0.011607111843 0.029287979404 0.028797027529 0.028307577137 
0.027820123244 0.027334891851 0.026852432256 0.026373187044 0.025897630506 0.025426197797 0.024959236212 0.024496810887 0.024039976294 
0.023588737712 0.023143241745 0.022703664603 0.022270325843 0.021843229827 0.021422474122 0.021008069933 0.020600105783 0.020198555449 
0.01980349288 0.019414974033 0.019032964615 0.018657717357 0.018289191636 0.017927517489 0.017572748833 0.017224935771 0.016884316407 
0.016550539448 0.016223722529 0.015903811296 0.015590998257 0.015285046461 0.014985860741 0.014693495685 0.01440782648 0.014128288575 
0.013855026412 0.013588117569 0.01332744509 0.013072790458 0.012824056436 0.012581281128 0.012344275062 0.012112927906 0.011887070533 
0.011666438204 0.011451126571 0.02844047818 0.027972644367 0.027506139558 0.027041170446 0.026578357591 0.026118079062 0.02566074278 
0.025206801854 0.024756441848 0.024310231874 0.023868742245 0.023432060881 0.023000531429 0.022574222992 0.022153551597 0.021738567028 
0.021329325632 0.020925925405 0.02052843161 0.020136853286 0.019751239932 0.019371601818 0.018998075701 0.018630639509 0.018269492959 
0.017914644651 0.017566190419 0.017224414919 0.01688897728 0.016560145186 0.016237923702 0.015922272878 0.015613119459 0.01531068179 
0.015014704697 0.014725490263 0.014442312198 0.014165148233 0.013894140213 0.013629047088 0.013370045194 0.013116858679 0.012869443879 
0.012627686741 0.012391582771 0.012160994415 0.011935808896 0.01171577686 0.011500976839 0.011291170635 0.027614309006 0.027168245614 
0.026723351985 0.026279850017 0.025838282244 0.025398857194 0.024962358285 0.024528926634 0.02409883169 0.023672727669 0.023250791105 
0.022833340686 0.02242056534 0.02201277937 0.021610078188 0.021212620856 0.02082048897 0.020433698979 0.020052409873 0.019676586111 
0.019306302808 0.018941584984 0.018582440526 0.018229112058 0.017881577387 0.0175401408 0.017204505314 0.016874957272 0.016551554541 
0.016234374963 0.015923357411 0.015618502036 0.015320030578 0.015028078005 0.014741929045 0.01446183423 0.014187565855 0.013919113684 
0.013656447386 0.013399429139 0.01314812332 0.0129023568 0.012662017349 0.012427179679 0.012197660713 0.011973418154 0.011754341419 
0.011540187593 0.011331064901 0.011126717222 0.026806390359 0.026380923667 0.025956480668 0.025533421747 0.025112081365 0.02469288248 
0.024276210247 0.023862241371 0.023451605735 0.023044592856 0.022641363237 0.022242186017 0.021847419251 0.021457260901 0.021071816567 
0.020691180656 0.020315470146 0.019944745833 0.019579028065 0.01921838309 0.018862875507 0.018512506543 0.018167340325 0.017827798517 
0.017493445629 0.017164609397 0.016841418023 0.016523932182 0.016212261059 0.015906429399 0.015606771941 0.015312565989 0.015024374578 
0.014742072806 0.014465439912 0.014194572994 0.013929149178 0.013669290606 0.01341479598 0.013165736553 0.012922039245 0.012683529623 
0.012450303566 0.012222226754 0.011999252817 0.0117812922 0.011568148094 0.011359945742 0.011156444353 0.010957537064 0.026014752693 
0.02560914532 0.025204317325 0.02480073507 0.02439874988 0.023998728972 0.023600882096 0.023205717417 0.022813556398 0.022424543046 
0.022039274215 0.021657805754 0.02128035663 0.020907117902 0.020538240036 0.020173772429 0.019813867667 0.019458542151 0.01910784781 
0.018761838592 0.01842058953 0.018084343605 0.017752674315 0.017426044355 0.017104490705 0.01678810776 0.016477024208 0.016171296793 
0.015871377362 0.015576549729 0.01528720986 0.015003568833 0.014725523486 0.0144528803 0.014185746123 0.013923838464 0.01366715742 
0.0134157268 0.013169317727 0.012928070983 0.012691876897 0.012460597088 0.012234331874 0.012012950641 0.011796431798 0.011584583906 
0.011377559217 0.011175144547 0.010977245335 0.010783708947 0.025238769471 0.024851934645 0.024466005776 0.024081054933 0.023697508586 
0.023315723772 0.022936062622 0.022558867104 0.022184264131 0.021812851666 0.021444773422 0.021080181964 0.020719319291 0.020362333121 
0.020009364548 0.019660469979 0.019315765959 0.018975286418 0.018639348065 0.01830747625 0.017979989027 0.017656874839 0.017338357386 
0.017024479969 0.016715343419 0.016411057741 0.016112035166 0.015817757719 0.015528542284 0.015244468377 0.01496578634 0.014692394927 
0.014424137047 0.014161027339 0.013903113188 0.013650102718 0.013402029387 0.013158758076 0.012920418528 0.01268688399 0.012458003316 
0.012233929508 0.012014530168 0.011799784832 0.011589660541 0.011383992326 0.011182897744 0.010986228994 0.010793878624 0.010605717253 
0.024478324818 0.024109659366 0.023741609031 0.023374511724 0.023008694417 0.022644460414 0.022282040501 0.021922035544 0.021564542065 
0.021209879568 0.020858248592 0.020509868426 0.020164926516 0.019823572047 0.019485882089 0.019151968689 0.018822185959 0.018496007411 
0.018173785013 0.017855545813 0.017541381356 0.01723126353 0.01692543438 0.016624237872 0.016327148682 0.016034601122 0.015746702195 
0.015463561613 0.01518519546 0.014911755471 0.014643311678 0.014379786188 0.014121148977 0.013867464626 0.013618469342 0.013374175762 
0.0131345314 0.01289939763 0.012668892558 0.012442856589 0.012221345376 0.012004310614 0.01179168473 0.01158349443 0.011379589146 
0.011180140778 0.010984964272 0.010793996844 0.010607163459 0.010424321301 0.023734097206 0.023382751254 0.023031990558 0.022682005219 
0.022332982162 0.021985612399 0.021640013095 0.021296482936 0.02095526289 0.020616661513 0.020280832958 0.019947990651 0.019618320545 
0.019292252821 0.018969267145 0.01864972925 0.018333733192 0.018021335316 0.017712578248 0.017407515005 0.017106164912 0.016809022216 
0.016515450594 0.016225903238 0.015940509342 0.015659370521 0.015382591584 0.015110195941 0.014842407352 0.01457929485 0.01432082273 
0.014066983607 0.013817747158 0.013573172521 0.013333014079 0.013097219892 0.01286582949 0.01263864451 0.012415760382 0.012197237033 
0.011982917315 0.011772804136 0.01156688876 0.011365050434 0.011167501391 0.0109740985 0.010784756107 0.010599428208 0.010418023343 
0.010240449517 0.023007359386 0.022672699093 0.022338207046 0.022004643327 0.021672079841 0.021340842227 0.021011201175 0.020683450361 
0.020357860084 0.020034613421 0.019713937223 0.019396310825 0.01908127889 0.018769278163 0.018460377474 0.018154659342 0.017852200457 
0.01755306365 0.017257600784 0.01696522756 0.01667627638 0.01639095455 0.016109249753 0.015831288687 0.015557225669 0.015287142257 
0.015021057846 0.01475920061 0.014501716338 0.01424857649 0.013999803044 0.01375538398 0.01351541669 0.013279610945 0.013047984971 
0.012820546005 0.012597119871 0.012377834249 0.012162488813 0.011951245087 0.011743970376 0.011540690081 0.011341347007 0.011145885596 
0.010954486897 0.010767016577 0.010583434341 0.010403657268 0.010227627132 0.010055260105 0.022299494383 0.021980667864 0.021662163495 
0.021344301966 0.021027318475 0.020711532565 0.020397197009 0.020084585761 0.019774217229 0.019465675586 0.019159488692 0.01885581289 
0.018554793004 0.018256560019 0.017961161184 0.017668678962 0.017379518938 0.01709311376 0.016809789033 0.016529554675 0.016252643496 
0.015979013291 0.015708776878 0.015442039029 0.015178917069 0.014919523008 0.014663820246 0.014412217488 0.014164653395 0.013921170466 
0.013681792959 0.013446639309 0.013215414966 0.012988184032 0.012764935795 0.012545599332 0.012330028337 0.012118257513 0.011910373037 
0.011706236018 0.011505846666 0.011309221592 0.01111623885 0.010927123424 0.010741771295 0.010560128036 0.010382216676 0.010207903605 
0.010037146472 0.0098698972541 0.021612247323 0.021308618941 0.021005256785 0.02070238386 0.020400316573 0.020099630316 0.019799879045 
0.019501718644 0.019205279102 0.018910802043 0.018618456801 0.018328399102 0.018040802649 0.017756031535 0.017473544923 0.017193725195 
0.016916690357 0.016642458192 0.016371093723 0.016102602706 0.015837160721 0.015574809839 0.015315611473 0.015059679123 0.014807202981 
0.014558054681 0.014312438935 0.014070688471 0.013832716564 0.013598597858 0.013368298441 0.013141941738 0.012919302572 0.012700401144 
0.012485252796 0.012273669803 0.012065710675 0.011861409311 0.01166069215 0.011463481988 0.011269822845 0.011079615931 0.010893032618 
0.010710051575 0.010530610369 0.010354717721 0.010182293093 0.01001333758 0.0098477831403 0.0096855272267 0.020946925382 0.020657798027 
0.020369230309 0.020080679334 0.019792815555 0.019505871675 0.019220099466 0.018935673891 0.018652823015 0.018371751716 0.018092935666 
0.017815882738 0.017541059732 0.017268495517 0.016998321374 0.016730632313 0.016465466238 0.01620290194 0.015942930676 0.015685730453 
0.015431313815 0.015179788284 0.014931204715 0.01468573356 0.01444325863 0.01420400079 0.01396825544 0.013735986071 0.013507283205 
0.013282130649 0.013060680105 0.012842741315 0.012628348857 0.012417519358 0.012210188539 0.012006111579 0.011805611171 0.01160846754 
0.011414701856 0.011224242251 0.011037029543 0.010853274043 0.010672853581 0.010495814829 0.010322125024 0.010151819401 0.0099848138803 
0.0098210806853 0.0096605840127 0.0095032161002 0.020305129395 0.020029808499 0.01975457147 0.019479675212 0.019205334035 0.018931813537 
0.018659270429 0.01838828191 0.018118379623 0.017850040668 0.017583482308 0.017318821235 0.017056137621 0.016795515631 0.016537104692 
0.016280958342 0.01602713022 0.015775710616 0.015526666516 0.015280208454 0.015036363977 0.014795196413 0.014556853011 0.014321287988 
0.014088448136 0.013858888734 0.013632501493 0.01340934841 0.013189494431 0.012973086088 0.012759953835 0.012550203276 0.012343777833 
0.012140694343 0.01194070931 0.011744135181 0.011550746504 0.011360563292 0.011173486924 0.010989561283 0.010808699145 0.010631075864 
0.010456653294 0.010285405106 0.010117351863 0.0099524636052 0.0097907198832 0.0096320878367 0.0094764911743 0.0093238859812 0.019686919115 
0.019424712696 0.019162506453 0.018900557356 0.018639413021 0.018378597334 0.018118649857 0.017859784342 0.017602147857 0.017345951997 
0.017091317848 0.016838412447 0.016587264049 0.016338040893 0.016090828617 0.015845653995 0.015602655201 0.015361764778 0.015123231079 
0.014887071515 0.014653379115 0.014422115209 0.014193431021 0.013967184818 0.013743945003 0.013523541052 0.013306072596 0.013091652945 
0.012880319474 0.01267220539 0.012467143597 0.012265228245 0.01206647561 0.011870653436 0.011678077167 0.011488542742 0.011302017301 
0.011118488446 0.010937893438 0.010760205046 0.010585578985 0.010413934932 0.010245301365 0.010079687675 0.009917060859 0.009757439288 
0.0096008013632 0.0094471149992 0.0092962733228 0.0091482956645 0.019093515468 0.018843685946 0.018593830367 0.018344184867 0.018094855362 
0.017846093921 0.017598068351 0.017351005752 0.01710504749 0.016860344157 0.016617038304 0.016375271213 0.016135119182 0.015896711389 
0.015660102734 0.01542539757 0.015192663486 0.01496187596 0.014733386675 0.014507004352 0.014282849395 0.014061060368 0.013841474285 
0.013624556209 0.013410243697 0.013198598283 0.012989672915 0.012783612168 0.012580518287 0.012380253266 0.012182907421 0.01198853556 
0.011797016747 0.011608424554 0.011422775116 0.011240018149 0.011060090615 0.01088295762 0.010708552724 0.010537036735 0.010368339869 
0.010202452141 0.010039417487 0.0098792311727 0.0097218719171 0.0095673535852 0.0094156689894 0.0092667105608 0.0091205191767 0.0089770166589 
0.018524347856 0.018286242081 0.018048093455 0.017809995073 0.017572175889 0.01733481008 0.017098102927 0.016862212656 0.016627285331 
0.016393446117 0.016160910577 0.015929714722 0.015699990358 0.015471819668 0.015245324358 0.015020532312 0.014797479782 0.014576487441 
0.014357390812 0.014140324654 0.013925367839 0.013712362007 0.013501838331 0.013293624678 0.0130878283 0.012884528432 0.012683779506 
0.012485777211 0.012290365759 0.012097664329 0.011907715552 0.011720452624 0.011535955671 0.011354288592 0.011175323074 0.010999035727 
0.010825430266 0.010654388028 0.01048607676 0.010320415498 0.010157399888 0.0099970718887 0.0098394398763 0.0096844773961 0.0095321968228 
0.0093826238519 0.0092356632127 0.0090913467118 0.0089496261337 0.0088104557182 0.017979548498 0.017752561307 0.017525381914 0.017298197246 
0.017071253276 0.01684468938 0.016618674114 0.016393317535 0.016168826695 0.015945321044 0.01572293185 0.015501766372 0.015281892898 
0.015063462759 0.014846526406 0.014631155661 0.014417497256 0.014205573018 0.013995464365 0.013787261119 0.013580813728 0.013376608045 
0.013174492596 0.012974570997 0.012776895011 0.01258152944 0.012388658541 0.012198164739 0.012010168322 0.011824621286 0.01164175512 
0.011461462819 0.011283665107 0.011108521612 0.010935927451 0.010765869229 0.010598240452 0.010433187194 0.010270643479 0.010110614879 
0.009953076723 0.0097980999119 0.0096456324594 0.0094957092442 0.009348351124 0.0092034744859 0.0090611265322 0.0089212693235 0.0087839200968 
0.0086489176123 0.01745873796 0.01724213161 0.017025285316 0.016808464133 0.016591773769 0.016375383137 0.016159408762 0.015944056072 
0.015729445409 0.015515705317 0.015302917172 0.015091235572 0.014880722249 0.01467157188 0.014463707804 0.01425722719 0.014052381211 
0.013849132056 0.013647591604 0.013447601486 0.013249670151 0.013053595613 0.012859509299 0.012667456256 0.012477503305 0.012289789919 
0.012104233293 0.011920976809 0.011739943075 0.011561396294 0.011385253038 0.011211432734 0.011040136962 0.010871245949 0.010704737671 
0.010540548857 0.010378792544 0.010219408973 0.010062392785 0.0099077576483 0.0097554881888 0.0096056105913 0.0094581313506 0.0093130778505 
0.0091704336748 0.0090301441608 0.0088922264094 0.0087566477418 0.0086234088684 0.0084924446875 0.016961136037 0.016754326363 0.016547302542 
0.016340202782 0.016133163793 0.015926360307 0.015719900534 0.015513978157 0.015308668424 0.015104154907 0.014900491531 0.014697823133 
0.014496170427 0.014295667153 0.014096351813 0.013898428752 0.013701952912 0.013506976023 0.013313351323 0.013121575081 0.012931499023 
0.012743194159 0.01255671636 0.012372140312 0.012189602033 0.012009000976 0.011830487393 0.011654017967 0.011479818268 0.011307841285 
0.011138016663 0.010970553687 0.010805359494 0.010642421462 0.010481683732 0.01032323348 0.010167032558 0.010013068174 0.0098613467596 
0.0097118602264 0.0095647158243 0.0094197709034 0.0092770827067 0.0091366335821 0.0089984360523 0.0088625304115 0.0087288708519 0.0085974234934 
0.0084681940485 0.0083411461421 0.016486018514 0.016288431021 0.016090609739 0.015892669506 0.0156947557 0.015497002936 0.015299540913 
0.015102499457 0.014906112138 0.014710253934 0.014515174297 0.014320938608 0.014127662312 0.013935358959 0.013744296257 0.013554439805 
0.013365903225 0.013178550628 0.012992848906 0.012808652797 0.012626066474 0.012445116165 0.012265871192 0.012088470684 0.011912822417 
0.011738965156 0.011567142067 0.011397309443 0.011229523656 0.011063802572 0.010900100196 0.010738606735 0.01057922398 0.0104219022 
0.010266831165 0.010113815103 0.0099629167786 0.0098141403799 0.0096674850892 0.0095229660567 0.0093805918705 0.0092403437638 0.0091021946839 
0.0089662134537 0.008832388954 0.0087006805232 0.0085711140394 0.0084436648393 0.008318299459 0.0081949306422 0.016032508074 0.015843625921 
0.015654470512 0.015465146593 0.015275805063 0.015086581186 0.014897672323 0.014709043579 0.014520840074 0.014333232023 0.014146268083 
0.013960080904 0.013774741842 0.013590290482 0.013406965346 0.013224760695 0.013043563847 0.012863837728 0.012685451767 0.012508469285 
0.012332979731 0.012159012432 0.011986700752 0.011815972079 0.011646851843 0.011479579173 0.011314110091 0.011150516844 0.010988866116 
0.010829017212 0.010671234859 0.010515416465 0.010361527066 0.010209713403 0.010059878906 0.009912038443 0.0097662089873 0.0096223833762 
0.0094806140836 0.0093408239515 0.0092030325838 0.009067261036 0.0089334966555 0.0088017897427 0.0086721259445 0.0085444867783 0.0084188605308 
0.0082952371936 0.0081735200174 0.0080536473645 0.015599730308 0.015419022679 0.015238017636 0.015056880134 0.014875659156 0.014694477229 
0.01451344722 0.014332733897 0.014152383769 0.013972498398 0.013793242988 0.013614662376 0.013436775296 0.013259837797 0.013083853134 
0.012908693782 0.012734829988 0.012562147907 0.012390697749 0.012220571971 0.012051820737 0.011884599202 0.011718660543 0.011554333398 
0.011391580803 0.01123045856 0.011071045311 0.010913372663 0.01075748368 0.010603287097 0.010451044027 0.01030059009 0.0101520569 
0.010005409114 0.0098606415213 0.0097177520599 0.0095767451283 0.0094377015374 0.0093005379326 0.0091652248491 0.0090318567367 0.0089003968223 
0.0087708804101 0.0086432917469 0.0085176192079 0.0083938673537 0.008272049363 0.0081520066682 0.008033759088 0.0079175528482 0.015186781934 
0.015013781176 0.014840454609 0.014666953616 0.014493330573 0.014319730235 0.014146263777 0.013972964665 0.013800031334 0.013627519082 
0.013455577181 0.0132841244 0.013113432196 0.012943535536 0.012774321483 0.012606214807 0.012439135273 0.01227311994 0.012108263014 
0.011944625302 0.011782258323 0.01162122618 0.011461550054 0.011303305595 0.011146516085 0.010991261375 0.010837585481 0.010685552352 
0.010535067769 0.010386375719 0.010239349188 0.010094105638 0.009950618499 0.0098088956674 0.0096689537728 0.0095308150664 0.0093944673592 
0.0092599127267 0.0091271356882 0.0089961698583 0.0088670076226 0.0087396918886 0.0086142039491 0.0084905372675 0.008368721254 0.0082486987701 
0.0081303098644 0.0080137957534 0.007899179614 0.0077863367686 0.014792733286 0.014626982251 0.014460900112 0.014294590977 0.014128147719 
0.013961714254 0.013795338207 0.013629132829 0.013463206227 0.013297642779 0.013132543211 0.012967900817 0.012803976067 0.012640558867 
0.012478095897 0.012316482902 0.012155825705 0.011996178861 0.011837510573 0.011680099184 0.011523802981 0.011368729104 0.011214934301 
0.011062450981 0.010911344823 0.010761658339 0.010613447624 0.01046666417 0.010321510297 0.010177904659 0.010035941764 0.0098956035042 
0.0097569417172 0.0096199563386 0.0094846167768 0.0093509933012 0.0092190452163 0.0090887957539 0.0089602442132 0.0088334010916 0.0087083017803 
0.0085849310081 0.0084633214799 0.0083434160272 0.0082252444262 0.0081086209518 0.007993798738 0.0078807933332 0.0077694952282 0.0076598671722 
0.014416699983 0.014257767956 0.014098494244 0.013938972578 0.013779328841 0.013619648628 0.013459991051 0.013300457254 0.013141153291 
0.012982168746 0.012823505257 0.012665323627 0.012507671713 0.012350753029 0.012194523321 0.012039103335 0.011884480723 0.011730836975 
0.011578239158 0.011426619311 0.011276070673 0.011126666707 0.010978445708 0.010831436578 0.010685725244 0.010541326217 0.010398203763 
0.010256598252 0.010116415163 0.0099777233615 0.0098405444207 0.009704929524 0.0095708321211 0.0094383214719 0.0093074189844 0.0091780523547 
0.009050320178 0.0089241898541 0.0087996575716 0.008676789396 0.0085555759557 0.0084359803533 0.0083180363085 0.0082017341766 0.008086885458 
0.0079737878895 0.007862425884 0.0077526872686 0.0076445672962 0.0075380486415 0.01405789826 0.013905393244 0.013752552449 0.013599462996 
0.013446231674 0.013292904951 0.01313958673 0.012986362621 0.012833322764 0.012680484093 0.01252797169 0.012375894897 0.012224387582 
0.012073430158 0.011923078272 0.011773515809 0.01162474428 0.011476859638 0.011329823612 0.0111837517 0.011038679408 0.010894667492 
0.010751734216 0.010609955631 0.010469346685 0.010329986154 0.010191771518 0.010055004934 0.0099195831314 0.0097855671058 0.0096529490512 
0.009521780055 0.0093920357377 0.0092638197068 0.0091370641078 0.0090118161686 0.0088880830746 0.0087659090966 0.0086452609483 0.0085261659615 
0.0084086223803 0.0082926493773 0.0081782151274 0.0080651911629 0.0079538278419 0.0078441117852 0.0077359638626 0.0076293637868 0.007524307906 
0.0074207842709 0.013715577028 0.013569159761 0.013422390909 0.013275388213 0.013128169761 0.012980860028 0.012833535361 0.012686270551 
0.012539091179 0.012392040716 0.012245443564 0.012099181077 0.011953379617 0.011808113785 0.0116634503 0.011519439303 0.011376189637 
0.011233672376 0.011091966746 0.010951171541 0.010811306706 0.010672390772 0.010534495969 0.010397652545 0.010261917716 0.010127210038 
0.0099938324981 0.0098616631386 0.0097307526838 0.0096011415667 0.0094728620464 0.0093459076768 0.0092203653666 0.0090961936819 0.0089734549916 
0.0088520910023 0.0087322146104 0.0086137882671 0.0084968269992 0.0083813344434 0.0082673100986 0.0081547868818 0.0080435832018 0.0079339585296 
0.0078259137217 0.0077193608625 0.0076142577707 0.007510679285 0.0074085780314 0.0073079311535 0.013389062938 0.013248380506 0.01310738023 
0.012966065875 0.012824557284 0.012682933789 0.012541280288 0.012399565124 0.012257876815 0.012116531995 0.011975427541 0.011834677882 
0.011694336276 0.011554454026 0.011415095734 0.011276390278 0.011138304203 0.011000928134 0.010864313017 0.010728535929 0.010593573613 
0.010459528452 0.010326423677 0.010194275258 0.010063045291 0.009933005154 0.0098040673503 0.009676269492 0.0095496447545 0.0094242175733 
0.0093000773385 0.0091771803423 0.0090555790221 0.0089352850762 0.0088163241988 0.0086987315073 0.0085824984302 0.008467660973 0.0083541918105 
0.0082421517502 0.008131364912 0.0080221504484 0.0079142334079 0.0078078621117 0.0077029187731 0.0075994106628 0.0074973142071 0.0073966406482 
0.0072970134758 0.0071991141561 0.013077680199 0.012942452236 0.012806832509 0.012670924956 0.012534812438 0.012398563395 0.012262158255 
0.012125716025 0.011989470293 0.011853370085 0.011717523365 0.011581953331 0.011446744586 0.01131197701 0.011177679557 0.011043933886 
0.010910787904 0.01077829787 0.010646549625 0.010515482021 0.010385215545 0.010255776652 0.010127189961 0.0099994030975 0.0098727025702 
0.0097469745025 0.0096222490123 0.0094985679676 0.0093760521937 0.0092546235566 0.0091343729178 0.0090153146365 0.0088974746482 0.0087808686613 
0.0086655344878 0.008551516495 0.0084387672913 0.008327356803 0.0082172289984 0.0081083233719 0.0080009300539 0.0078948019602 0.007790112077 
0.0076867987448 0.0075848234816 0.0074838441392 0.0073846137448 0.0072867300095 0.0071901198137 0.0070948986152 0.012780838283 0.012650716014 
0.012520201385 0.012389401101 0.012258307082 0.012127079892 0.011995726197 0.011864439599 0.01173320849 0.011602096195 0.011471172184 
0.011340512242 0.01121020409 0.011080241072 0.010950733217 0.010821733913 0.010693282105 0.010565449589 0.010438224554 0.010311691707 
0.010185868355 0.010060796247 0.0099364366978 0.0098129991859 0.009690430595 0.0095687725575 0.009448074628 0.0093283519292 0.009209674961 
0.0090920652512 0.0089755201014 0.0088600996803 0.0087458575112 0.0086327807572 0.0085208633874 0.0084102447298 0.0083008520257 0.0081925704437 
0.0080856966707 0.0079801021828 0.0078757182403 0.0077727234159 0.0076709950915 0.0075701952655 0.0074710802063 0.0073732806212 0.0072767286546 
0.0071815139399 0.0070875750542 0.0069949080376 0.012497901799 0.012372581593 0.012246842633 0.01212086091 0.01199462073 0.011868162109 
0.01174163829 0.011615100484 0.011488590061 0.011362175674 0.011235947495 0.011109940375 0.010984219673 0.010858835303 0.010733875054 
0.010609374449 0.01048542116 0.010361947824 0.010239087656 0.010116839726 0.0099952242895 0.0098742067997 0.0097540318677 0.0096346176843 
0.0095160211952 0.0093982353492 0.0092813373778 0.0091653654588 0.0090503709219 0.0089362837157 0.0088232543431 0.0087113334439 0.0086005060174 
0.0084907735234 0.0083822314501 0.0082748520015 0.0081685029885 0.0080634914936 0.0079596935694 0.0078570670954 0.0077557070542 0.0076552105932 
0.007556328106 0.0074586890746 0.0073622827055 0.0072671457504 0.0071732668734 0.0070806218414 0.0069892025957 0.0068990130874 0.012228182195 
0.012107431356 0.011986281057 0.011864858098 0.011743104142 0.011621247867 0.011499258456 0.011377200782 0.011255158313 0.011133204361 
0.011011384454 0.010889774431 0.01076842652 0.010647395707 0.010526768744 0.010406546264 0.010286762059 0.010167482297 0.010048744114 
0.0099305527992 0.0098129605705 0.0096959308183 0.0095796387985 0.0094640262376 0.0093491060633 0.0092349993053 0.0091217149881 0.0090093072986 
0.0088977437235 0.0087871249208 0.0086774984502 0.0085688765783 0.0084612712103 0.0083547807855 0.0082492455955 0.0081449431558 0.0080418232768 
0.007939787897 0.0078384751043 0.0077387621649 0.0076402303908 0.0075428795438 0.0074466958713 0.0073517317106 0.007257970061 0.0071654086215 
0.0070740463374 0.006983878678 0.0068948898503 0.0068070562669 0.01197111791 0.011854656377 0.011737855543 0.011620672926 0.011503298419 
0.011385720498 0.011267997141 0.011150184468 0.011032367641 0.010914614536 0.0107969843 0.010679534529 0.010562331096 0.01044545025 
0.010328888549 0.010212701395 0.010096952601 0.0099816194999 0.0098667767589 0.0097524802505 0.0096386103898 0.0095254068407 0.0094127746446 
0.0093007780151 0.0091894510802 0.0090788803152 0.0089689992995 0.0088599379444 0.0087516873436 0.0086443279875 0.0085378962589 0.008432405485 
0.0083279071521 0.0082244060378 0.0081219885829 0.0080206250687 0.007919973447 0.007820733539 0.0077226497895 0.0076256595828 0.0075298238841 
0.0074351354722 0.0073415865933 0.0072491809644 0.0071579377698 0.0070678442278 0.0069789168356 0.0068911172207 0.0068044428134 0.0067188866638 
0.011725935633 0.011613597075 0.011500816133 0.011387783127 0.01127447631 0.011160939944 0.01104725419 0.010933460721 0.010819598933 
0.010705823845 0.010592162045 0.010478699548 0.010365427618 0.010252400076 0.01013973084 0.01002743532 0.0099154989485 0.0098039612912 
0.0096928632022 0.0095821365621 0.0094719831283 0.0093623181385 0.0092531850535 0.0091446163389 0.0090366878886 0.0089293795073 0.008822763586 
0.0087168805428 0.0086117900158 0.0085075121875 0.0084041822756 0.0083015754893 0.0082000512193 0.0080991181345 0.0079995508744 0.0079009425282 
0.0078034298342 0.0077069413471 0.0076115280662 0.0075171941407 0.0074239564701 0.0073318007899 0.0072407539218 0.0071507827525 0.0070619577621 
0.0069742340297 0.0068876194202 0.0068021051606 0.0067176675878 0.0066342987169 0.011491899697 0.011383361477 0.011274517421 0.011165325692 
0.011055868968 0.01094618011 0.010836312922 0.01072632614 0.010616294518 0.010506294335 0.010396423633 0.010286684437 0.010177122213 
0.010067851652 0.0099588654841 0.0098501901406 0.0097418744854 0.0096339333394 0.0095262928595 0.0094191442967 0.0093124111788 0.0092061234302 
0.0091003300361 0.0089950358887 0.0088902788389 0.0087861111046 0.0086825852735 0.0085798244533 0.0084777021271 0.0083762585372 0.0082753613395 
0.0081757302785 0.0080770192656 0.007979237744 0.0078823193006 0.0077864545481 0.0076915836961 0.0075977006628 0.0075048532596 0.0074130298174 
0.0073222544023 0.0072325325292 0.0071438652949 0.0070562628894 0.0069697362472 0.0068842816463 0.0067999007659 0.0067165772022 0.0066342737227 
0.006553009065 0.011268089902 0.011163256606 0.011058077286 0.010952561424 0.010846756069 0.01074070418 0.010634462172 0.010528088397 
0.010421687045 0.010315271036 0.01020894271 0.010102751617 0.009996752437 0.009890989703 0.0097854934216 0.0096803051683 0.0095754386121 
0.0094708219278 0.0093666343368 0.0092627759712 0.0091593121064 0.0090562580556 0.0089536083844 0.0088515012055 0.0087497868949 0.0086486135547 
0.0085480059809 0.0084475808654 0.0083483068404 0.0082497800761 0.00815201114 0.0080551100455 0.0079590768295 0.0078638747369 0.0077696371944 
0.0076763416585 0.0075839859589 0.0074926015874 0.0074021851748 0.007312774409 0.0072243631564 0.0071369476225 0.0070505680289 0.0069652178456 