# vtk DataFile Version 5.1
vtk output
ASCII
DATASET STRUCTURED_POINTS
DIMENSIONS 20 20 20
SPACING 0.005 0.005 0.005
ORIGIN 0.2189 -0.051172 0.02882
POINT_DATA 8000
FIELD FieldData 1
potential 1 8000 double
0.0049251216017 0.00504583317 0.0051687859393 0.0052941531335 0.0054220409686 0.0055523897772 0.0056849873966 0.0058195545879 0.0059558670673 
0.0060938423261 0.0062334695728 0.0063746906953 0.0065173515825 0.0066611614252 0.0068057906697 0.0069508602663 0.0070959236001 0.0072406056952 
0.0073844890654 0.0075270894928 0.0051059963932 0.0052343178245 0.0053651166824 0.0054986114068 0.00563492515 0.0057740330088 0.0059157425099 
0.006059747546 0.0062058217832 0.0063538310397 0.006503729876 0.0066554557577 0.006808865423 0.0069636505734 0.0071194268324 0.007275746693 
0.0074321091034 0.0075880105851 0.0077430585435 0.0078967992429 0.0052790408556 0.0054152360741 0.0055541601912 0.0056960735887 0.0058411130803 
0.0059892909591 0.0061404296785 0.0062942343418 0.0064504639233 0.0066089070425 0.0067694984747 0.0069321300743 0.0070966656551 0.0072627796921 
0.0074301145157 0.0075980868272 0.0077661039255 0.0079336166341 0.0081002226062 0.0082655076919 0.0054435218189 0.0055878866648 0.0057352901205 
0.0058859779296 0.0060401225883 0.0061977434159 0.0063586934955 0.0065226897856 0.0066894632403 0.0068587778759 0.0070304714074 0.0072044509375 
0.0073805553617 0.0075584985781 0.0077378066751 0.0079178796434 0.0080980471576 0.0082777263727 0.0084564734804 0.0086339118984 0.0056030882538 
0.0057560453514 0.005912421089 0.0060724333673 0.0062362256376 0.006403841614 0.0065751361749 0.0067498926553 0.0069277730302 0.0071085184715 
0.0072919695589 0.0074779574977 0.0076663270214 0.00785673381 0.0080486929312 0.0082415730116 0.0084346505267 0.0086273892708 0.0088192550831 
0.0090099026562 0.0057643181256 0.0059264748407 0.0060925090438 0.0062625774186 0.0064367979354 0.0066151840826 0.0067976504037 0.0069839380309 
0.0071737641831 0.0073668650787 0.0075630132319 0.0077620264872 0.0079636722045 0.008167585308 0.0083732465381 0.0085800131226 0.0087872629618 
0.0089943562227 0.0092007722635 0.0094060589054 0.0059342116304 0.0061063457979 0.0062828770853 0.0064639136107 0.006649521047 0.0068397359448 
0.0070344019925 0.0072333368409 0.007436287218 0.00764296712 0.0078531421614 0.0080665547986 0.0082829001324 0.0085017406968 0.008722624798 
0.00894491467 0.009167995135 0.0093912364345 0.0096139866247 0.0098357453442 0.0061183240802 0.0063013199141 0.0064893103029 0.0066823477674 
0.0068804811228 0.0070836968679 0.0072919055431 0.0075049162132 0.007722480804 0.0079443001335 0.0081701290415 0.0083996520465 0.0086324507207 
0.0088681539908 0.0091062218139 0.0093460820931 0.0095870835897 0.0098285440392 0.010069900521 0.010310414978 0.0063201197073 0.0065149872222 
0.006715504952 0.0069217245436 0.0071336726273 0.0073513154227 0.0075745770836 0.0078032754728 0.0080371608792 0.0082759798364 0.0085193901486 
0.0087670039108 0.0090184449609 0.0092732469108 0.0095308280693 0.0097906648259 0.010052058372 0.010314340093 0.010576763774 0.010838571372 
0.006541560636 0.0067494430712 0.0069637218889 0.0071844443082 0.0074116216037 0.007645253744 0.0078852442039 0.0081314617076 0.0083836266157 
0.0086415029621 0.0089046568877 0.0091727285227 0.0094452609891 0.0097216920056 0.010001511057 0.010284061956 0.010568685919 0.010854655735 
0.011141082044 0.011427107003 0.0067838795609 0.0070060619069 0.0072354605139 0.0074721393755 0.007716139181 0.0079674942045 0.00822611755 
0.0084918382117 0.0087644792334 0.0090436708318 0.0093290715431 0.0096202242312 0.0099165938561 0.010217637337 0.010522650485 0.010831112302 
0.011142149744 0.011455031178 0.011768798986 0.012082426429 0.0070481864264 0.0072860347665 0.0075320393565 0.0077863067617 0.0080489054887 
0.0083198720898 0.0085991786513 0.0088866875608 0.0091821536863 0.0094852952597 0.009795698813 0.010112868055 0.010436262051 0.010765166031 
0.011098926627 0.011436783204 0.011777898464 0.012121411039 0.01246628152 0.012811360929 0.0073355701624 0.0075905870848 0.0078548120061 
0.0081284236573 0.0084115181455 0.0087042259942 0.0090065154161 0.0093182605051 0.0096392563312 0.0099691989259 0.010307692327 0.010654241609 
0.011008171643 0.011368788074 0.011735173483 0.01210650863 0.012481820202 0.012860220134 0.013240522125 0.013621477614 0.0076469319194 
0.0079206902634 0.0082048610097 0.008499678692 0.0088053871016 0.0091221236035 0.0094499109152 0.0097886352266 0.010138075224 0.010497987339 
0.010868000003 0.011247652027 0.01163621084 0.012032739758 0.012436215085 0.012845616166 0.013259904318 0.01367801393 0.014098665661 
0.014520561401 0.0079821310995 0.0082762555642 0.0085821226854 0.0089001678867 0.0092307060119 0.0095739509826 0.0099299673905 0.010298586856 
0.010679673692 0.011072997008 0.011478287457 0.011895008783 0.012322504411 0.012759644962 0.013205182767 0.013657820778 0.014116321349 
0.014579514064 0.015046051328 0.015514560779 0.0083387336524 0.0086548355472 0.0089842225151 0.009327507915 0.0096851353401 0.010057416316 
0.010444419525 0.010845965835 0.011261946192 0.011692275407 0.012136676679 0.01259484258 0.01306584078 0.013548527646 0.01404137269 
0.014542739029 0.015051206479 0.015565368975 0.016083863416 0.016605147345 0.0087105072702 0.0090501253577 0.0094047477174 0.0097751982728 
0.010162104512 0.010565843741 0.010986474023 0.011423922291 0.01187812464 0.012348984456 0.012836544261 0.013340204872 0.013859252868 
0.014392318398 0.014937613778 0.015493345681 0.01605764668 0.016629004828 0.017205878844 0.017786610799 0.009087383258 0.0094518238304 
0.0098331747825 0.010232469632 0.010650508672 0.01108780843 0.011544484271 0.012020565259 0.012516042941 0.013030937704 0.013565150582 
0.014118290735 0.014689558385 0.015277446095 0.01588020735 0.016495597202 0.017121670151 0.017756537395 0.018398427096 0.019045558994 
0.0094576662128 0.0098479440608 0.010257222 0.0106867172 0.011137407354 0.011609979089 0.01210474382 0.012621828676 0.013161232314 
0.013723142323 0.014307362318 0.014913587414 0.015540813744 0.016187805414 0.01685255653 0.017532903394 0.018226576363 0.018931424598 
0.019645356757 0.020366107954 0.0098124652497 0.010229400471 0.010667554075 0.011128361823 0.011613004458 0.012122358139 0.012656985095 
0.013217164761 0.013803049818 0.014414713931 0.015052096513 0.015714810006 0.016402072636 0.017112465151 0.017844213686 0.018595141335 
0.019362823853 0.020144675489 0.020938353746 0.021740760547 0.0056544060813 0.0057932301045 0.0059346487213 0.0060787008879 0.0062253976222 
0.0063746665599 0.0065263491934 0.0066802404047 0.0068361591366 0.0069939461086 0.007153450906 0.0073145154988 0.0074769095578 0.0076403509249 
0.0078044624774 0.0079688842147 0.0081332067164 0.0082969622473 0.0084597352146 0.0086210556757 0.005854151458 0.0060016001042 0.0061519553625 
0.0063052641697 0.0064615513026 0.0066207456197 0.0067827068151 0.0069472210908 0.0071140806189 0.0072831008643 0.0074541193658 0.00762695256 
0.0078013655639 0.0079770512818 0.0081535743603 0.0083305585222 0.0085075124283 0.0086839263717 0.0088593577266 0.0090333316644 0.0060526957209 
0.0062092225806 0.006368977163 0.0065320354304 0.0066984228331 0.0068680948236 0.0070409142411 0.0072166478571 0.0073950811284 0.0075760006783 
0.0077592249474 0.0079445492292 0.0081316954817 0.0083203101038 0.008510021464 0.0087003199676 0.0088906625071 0.0090805169935 0.0092694057609 
0.0094568610234 0.0062499560367 0.0064160264985 0.0065857172662 0.0067590875618 0.0069361739449 0.0071169474641 0.007301260688 0.0074888898918 
0.007679595637 0.0078731718703 0.0080693574805 0.0082679248298 0.0084686031842 0.008671025625 0.0088747550799 0.0090792274278 0.0092838588895 
0.0094881048573 0.0096914281856 0.0098933407507 0.0064481543073 0.0066243612912 0.0068046105534 0.0069889847005 0.0071775021942 0.0073701181447 
0.0075666976331 0.007767052678 0.0079708939349 0.0081779805675 0.0083880666432 0.0086008681711 0.0088160991826 0.0090333429656 0.0092521264544 
0.0094718831908 0.0096919639642 0.0099117793533 0.01013080595 0.010348498893 0.0066512342465 0.0068382796343 0.0070298768455 0.0072260871154 
0.0074269127385 0.0076323017962 0.0078421450011 0.0080562039916 0.008274246153 0.0084959898887 0.0087211481741 0.0089494212826 0.0091804696711 
0.0094138544857 0.0096490690193 0.009885483417 0.010122500344 0.010359480563 0.010595792707 0.010830886219 0.0068636474811 0.0070623877891 
0.007266254508 0.0074752908486 0.0076894871148 0.0079087927107 0.008133049151 0.0083620920396 0.0085956338056 0.0088334213135 0.0090751121507 
0.0093203869798 0.0095688601509 0.0098200137715 0.010073362433 0.010328280974 0.01058407575 0.010840139525 0.01109572342 0.011350168589 
0.0070893917384 0.0073008050122 0.0075179981572 0.0077409912852 0.0079697726737 0.0082042738871 0.0084443694171 0.0086898754426 0.0089405212021 
0.0091959947 0.0094559777405 0.0097201117731 0.0099878811461 0.010258863566 0.010532442497 0.010808007871 0.011084846697 0.011362226662 
0.011639422926 0.011915696359 0.0073314908312 0.0075566782421 0.0077883625521 0.0080266068518 0.0082713457643 0.0085225470856 0.0087800712117 
0.0090437450929 0.0093132936877 0.0095884118973 0.0098687358886 0.010153809857 0.0104431935 0.010736326571 0.011032615509 0.011331358292 
0.011631810214 0.011933211767 0.012234746255 0.012535520752 0.0075920234558 0.0078322024748 0.008079728565 0.0083346048306 0.0085968541019 
0.0088664068509 0.0091431603855 0.0094269257123 0.0097174304829 0.010014374071 0.010317312254 0.01062583665 0.010939383808 0.011257388381 
0.011579176135 0.011903987496 0.012231093029 0.012559584507 0.012888544292 0.01321700724 0.0078724653663 0.0081290054949 0.0083937812393 
0.0086668825764 0.0089483212755 0.0092380683159 0.0095360269213 0.0098419953793 0.010155749578 0.010476924006 0.010805129715 0.011139851601 
0.011480478414 0.011826401572 0.012176850742 0.012531108106 0.012888210675 0.013247250147 0.013607210068 0.013966964006 0.0081739076585 
0.0084482278816 0.0087318602846 0.0090248905205 0.0093273680451 0.0096393284847 0.0099606472076 0.010291193624 0.010630703251 0.010978851275 
0.011335199219 0.011699173136 0.012070189221 0.01244745189 0.012830231834 0.013217588964 0.013608555355 0.014002088403 0.014397055904 
0.014792227696 0.0084970345141 0.0087907157855 0.009094871301 0.0094096692533 0.0097352113093 0.010071542778 0.010418626537 0.010776315355 
0.011144381569 0.011522480538 0.011910155632 0.01230684955 0.012711838559 0.013124385045 0.013543506977 0.013968190337 0.014397357451 
0.014829803126 0.015264367067 0.015699601376 0.0088420410968 0.009156708704 0.0094831804244 0.0098216997038 0.010172451257 0.010535527255 
0.01091093882 0.011298568408 0.011698198448 0.012109494916 0.012532035149 0.012965236784 0.013408332913 0.013860424308 0.014320350892 
0.014787045402 0.015259283264 0.015735734015 0.016215003052 0.016695579368 0.009208060707 0.009545409043 0.0098960496327 0.010260345375 
0.010638563227 0.011030890872 0.011437367559 0.011857931456 0.012292347341 0.012740403616 0.013201613477 0.013675342098 0.014160894411 
0.014657143877 0.015162890617 0.015676784049 0.016197467419 0.016723428874 0.017253171325 0.017784963975 0.0095926999671 0.009954422951 
0.010331100274 0.010723254403 0.011131260224 0.011555402872 0.011995797907 0.012452353364 0.012924947687 0.013413354079 0.01391716758 
0.014435859155 0.014968477535 0.015513919739 0.016070760133 0.01663749907 0.017212502501 0.01779408895 0.018380566731 0.018970054825 
0.0099914336938 0.010379164862 0.010783736076 0.011205800146 0.01164590209 0.012104419123 0.012581516154 0.013077212762 0.013591432844 
0.014124025085 0.014674623052 0.015242616967 0.015827138631 0.01642693354 0.017040407012 0.017665874997 0.018301434729 0.018945231104 
0.019595336972 0.020249555177 0.010398070372 0.010813367708 0.011247560808 0.011701517029 0.012175907014 0.012671266445 0.013187855526 
0.013725800196 0.01428511998 0.01486564838 0.015467184532 0.016089039775 0.016730381962 0.017389782225 0.01806568025 0.018756066343 
0.01945888146 0.020172032539 0.020893149611 0.021619933651 0.010806219043 0.01125050327 0.011715980772 0.01220366979 0.012714467135 
0.013249040566 0.013807831341 0.014391097433 0.01499893606 0.015631274876 0.016287922202 0.016968311149 0.017671491327 0.018396118664 
0.019140423093 0.019902363292 0.02067969072 0.02146986367 0.022270262524 0.023078172549 0.011211301283 0.011685973972 0.012184344798 
0.012707636352 0.013256938972 0.013833148685 0.014436888477 0.015068614765 0.015728480417 0.016416687282 0.017132968507 0.017876799484 
0.018647423309 0.019443367545 0.020262909599 0.021103909203 0.021963850663 0.02283987815 0.023729138117 0.024628121036 0.0063803733678 
0.0065368191072 0.006696176326 0.0068584302234 0.0070235213896 0.0071913528045 0.0073617739742 0.0075346065782 0.0077096529246 0.0078867243905 
0.0080655933209 0.0082460263555 0.0084277500493 0.008610446478 0.0087937469263 0.0089772177574 0.0091604814231 0.0093430573923 0.0095244685926 
0.009704241687 0.0066010600366 0.0067671413613 0.0069365032922 0.0071091156868 0.0072849272566 0.0074638394491 0.0076457163519 0.0078303618844 
0.0080175537605 0.0082070826486 0.0083987221967 0.0085922101333 0.0087872417143 0.0089834835697 0.0091804987239 0.0093778906189 0.0095751476331 
0.0097717851117 0.0099672917192 0.010161169197 0.0068249308199 0.0070012398801 0.0071812071526 0.0073648050911 0.0075520195932 0.0077427346834 
0.0079368174603 0.0081340560506 0.0083342251942 0.0085370861538 0.0087423889289 0.00894986872 0.0091591703685 0.0093699146413 0.0095816725238 
0.0097939738342 0.01000628362 0.010218042156 0.010428731207 0.01063781666 0.0070522172332 0.0072393618534 0.0074305987063 0.0076259190501 
0.0078252821859 0.0080286007185 0.0082357248631 0.0084464297498 0.0086604861651 0.008877641388 0.0090976306011 0.0093201094951 0.0095447304312 
0.0097710933729 0.0099987345208 0.010227115301 0.010455651696 0.010683783343 0.010910916599 0.01113648689 0.0072844473923 0.0074831384803 
0.0076864128727 0.0078942672544 0.0081066591005 0.0083234856311 0.0085446072706 0.0087697863685 0.0089988157369 0.0092313729031 0.0094671685546 
0.0097058640125 0.0099470802522 0.010190359529 0.010435203981 0.010681040708 0.010927252354 0.01117317433 0.011418251591 0.011661836709 
0.0075241979044 0.0077352518609 0.0079514424408 0.0081727715818 0.0083991920806 0.0086305919579 0.0088668244124 0.00910769512 0.0093529022986 
0.0096021743393 0.0098551774655 0.010111523324 0.010370805642 0.010632540168 0.010896191247 0.011161127323 0.011426678678 0.01169221598 
0.011957044528 0.012220491133 0.0077744749179 0.0079988199552 0.0082289474876 0.0084648478215 0.0087064434436 0.0089536766535 0.0092063282726 
0.0094642354786 0.0097270974617 0.0099946173076 0.010266414159 0.010542109465 0.010821236294 0.011103271738 0.011387592701 0.011673611874 
0.011960586903 0.01224780215 0.012534539007 0.012819989309 0.0080381893901 0.0082768970947 0.0085221034494 0.0087737805977 0.0090318916714 
0.0092963124123 0.0095668965856 0.0098434446598 0.010125652196 0.010413187105 0.010705689922 0.011002716275 0.011303739144 0.011608187747 
0.011915472722 0.01222488557 0.012535673566 0.012847026 0.013158095387 0.013468133816 0.0083178194446 0.0085720712472 0.0088336101649 
0.0091024392398 0.0093785062946 0.0096617229179 0.0099519325065 0.010248917073 0.010552390766 0.010861999579 0.011177348588 0.011497926853 
0.011823216522 0.012152615689 0.012485435493 0.01282092204 0.013158252721 0.01349653757 0.013834919938 0.014172393037 0.0086152441498 
0.0088863251105 0.0091656087559 0.0094530923126 0.0097487578654 0.010052519339 0.010364224767 0.01068367404 0.011010556848 0.011344539552 
0.01168513518 0.012031880964 0.012384149145 0.012741321837 0.013102600742 0.01346721399 0.013834209917 0.014202688245 0.014571626235 
0.014939927286 0.0089318645541 0.0092212146353 0.0095197595254 0.0098275503658 0.010144599011 0.010470825165 0.010806114713 0.011150251278 
0.011502929914 0.011863805841 0.012232412697 0.01260817745 0.012990467758 0.0133785672 0.01377167064 0.014168799149 0.014569104064 
0.014971398193 0.015374618231 0.015777544322 0.0092686936989 0.0095778086543 0.0098972737335 0.010227165133 0.010567530519 0.010918333898 
0.011279457245 0.011650725349 0.012031846341 0.012422456678 0.012822056122 0.013230058217 0.013645751093 0.014068379035 0.014496964598 
0.014930589022 0.015368110211 0.015808363494 0.016250109483 0.016691985564 0.0096262037219 0.0099567186746 0.010298859035 0.010652765019 
0.011018550152 0.011396182893 0.011785630845 0.0121867061 0.012599157347 0.013022581141 0.013456496185 0.013900250803 0.014353132853 
0.01481420491 0.015282527866 0.01575692215 0.016236202845 0.01671905519 0.017204071207 0.01768974427 0.010004341799 0.010357950573 
0.010724624102 0.011104599211 0.011498005686 0.011904939903 0.012325355541 0.012759124639 0.013205998931 0.013665610304 0.014137463809 
0.014620867241 0.015115011208 0.015618995388 0.016131658172 0.016651659745 0.017177733873 0.017708373648 0.018242013758 0.0187769794 
0.01040218747 0.010780661736 0.011173820939 0.011581972096 0.012005372764 0.012444162009 0.012898370128 0.013367922301 0.013852578456 
0.014352058007 0.014865752929 0.015392983415 0.015932957817 0.016484554718 0.017046535065 0.017617506092 0.018195918643 0.018780129952 
0.01936838286 0.019958764282 0.010817854904 0.011222989686 0.011644597278 0.012083140046 0.012538970107 0.013012308786 0.013503271866 
0.014011850962 0.014537820479 0.015080895138 0.015640560668 0.016216199679 0.016806801981 0.017411239709 0.018028114527 0.018655866835 
0.019292728751 0.01993689057 0.020586317901 0.021238902905 0.011248250107 0.011681842543 0.012133922659 0.012605089115 0.013095817935 
0.01360648199 0.014137255492 0.014688177843 0.01525915464 0.015849933157 0.016459997603 0.01708876413 0.017735155433 0.0183979696 
0.019075695453 0.019766499491 0.020468548828 0.021179660967 0.021897628627 0.022619911815 0.011689644151 0.012153459521 0.012638013325 
0.013144056665 0.013672211221 0.014222983426 0.014796697762 0.015393467903 0.016013327327 0.016655992169 0.01732119287 0.018008082802 
0.01871578575 0.019442964783 0.020187898829 0.020948745314 0.021723266289 0.022509199122 0.023303798805 0.024104351309 0.012138453165 
0.012634277305 0.013153310558 0.013696492779 0.014264639649 0.014858410607 0.015478280376 0.016124532733 0.016797299573 0.017496424911 
0.018221573269 0.018972133463 0.019747124144 0.020545118547 0.021364451134 0.022202868124 0.023058113328 0.023927486743 0.024807997872 
0.025696401744 0.012592295756 0.013121948087 0.013677557421 0.014260253962 0.014871073691 0.01551088667 0.016180367495 0.016879989466 
0.017609958536 0.01837042724 0.019161027443 0.019981280514 0.020830115131 0.021706306047 0.022607882903 0.023532681315 0.024478027835 
0.025440926979 0.026418025029 0.027405548609 0.0070993573335 0.0072728922747 0.0074496459473 0.0076295435578 0.0078124948551 0.007998381305 
0.0081870377327 0.0083782695831 0.0085718719767 0.0087676095593 0.0089652361907 0.009164460158 0.0093649518969 0.0095663730991 0.0097683185126 
0.0099703751244 0.010172070449 0.010372947426 0.010572510512 0.010770234562 0.0073417241775 0.007525890465 0.0077136649671 0.0079049762273 
0.0080997419068 0.0082978253123 0.0084990664907 0.0087032622365 0.0089101928756 0.0091196029062 0.0093312189059 0.0095447366461 0.0097598069937 
0.0099760417174 0.010193010451 0.010410261836 0.010627296585 0.010843598418 0.011058608746 0.011271801879 0.0075903472426 0.0077858145924 
0.0079853352787 0.0081888214755 0.0083961955006 0.0086073229207 0.0088220400574 0.0090401434721 0.009261375427 0.0094854776996 0.0097121504595 
0.0099410603682 0.010171846495 0.010404074571 0.010637249194 0.010870933549 0.011104554456 0.011337536365 0.011569301414 0.011799282582 
0.0078456238635 0.0080531313962 0.0082651639588 0.0084816601054 0.0087025282888 0.0089276330622 0.0091568112433 0.0093898459998 0.0096264665223 
0.0098663833699 0.01010931008 0.010354839881 0.0106025884 0.010852083882 0.011102860027 0.011354352192 0.011605970191 0.011857086211 
0.012107094189 0.012355353994 0.0081087145374 0.0083290765883 0.0085545091092 0.0087849380268 0.0090202864664 0.0092604208333 0.0095051660151 
0.0097542780849 0.010007521512 0.010264549968 0.010525030527 0.010788575311 0.011054737259 0.011323031646 0.011592923715 0.011863803452 
0.012135057348 0.012405984246 0.012675912269 0.012944185282 0.0083814541707 0.0086155787214 0.0088553736911 0.0091007908493 0.0093517416512 
0.0096080822979 0.0098696306085 0.010136171344 0.010407394164 0.010682989608 0.010962578665 0.011245724937 0.011531976657 0.011820776734 
0.01211157811 0.012403704421 0.012696454557 0.012989139203 0.013281014534 0.01357130705 0.0086659855597 0.008914887592 0.0091701599026 
0.0094317408516 0.0096995448376 0.0099734227607 0.010253219828 0.010538660428 0.010829468127 0.011125296176 0.011425738133 0.011730335989 
0.012038580495 0.012349904892 0.012663639425 0.012979141553 0.013295634623 0.013612333691 0.013928447074 0.014243105231 0.0089645038779 
0.0092293300008 0.0095012893728 0.0097803417575 0.010066392878 0.010359334389 0.010658947951 0.010964992987 0.011277176117 0.011595141416 
0.011918434383 0.012246581043 0.012579034147 0.012915127905 0.013254226243 0.013595565452 0.013938320054 0.014281657166 0.014624618329 
0.014966326604 0.0092789804291 0.0095609820903 0.0098509812176 0.010148940393 0.010454803218 0.01076843737 0.011089659617 0.011418228814 
0.011753827663 0.012096045744 0.012444469578 0.012798552986 0.013157658696 0.01352118048 0.013888337739 0.014258321849 0.014630245594 
0.015003112722 0.015376012548 0.015747844057 0.009611040553 0.0099115729217 0.010221062768 0.010539537424 0.010866922424 0.011203110863 
0.011547909974 0.011901099843 0.012262346907 0.01263123568 0.013007315172 0.013389977367 0.013778613166 0.01417247939 0.014570761473 
0.014972575403 0.015376920525 0.015782762144 0.016188983104 0.01659444574 0.009961913665 0.010282460889 0.010613081221 0.0109537804 
0.011304549414 0.011665285305 0.012035833727 0.012415970369 0.012805338071 0.013203568797 0.013610095997 0.014024363794 0.014445646234 
0.014873170049 0.015306033636 0.01574321917 0.016183714951 0.016626321455 0.0170697809 0.017512827517 0.010332499042 0.010674660921 
0.01102810478 0.01139290219 0.011769072399 0.012156552692 0.012555219018 0.012964820012 0.013385073944 0.013815514049 0.014255646885 
0.014704825659 0.015162258902 0.015627121599 0.016098369746 0.016575004991 0.017055774016 0.017539391954 0.018024502987 0.018509608635 
0.01072321347 0.011088654577 0.011466762654 0.011857664453 0.012261427923 0.012678004871 0.013107329391 0.013549193515 0.014003267675 
0.014469152226 0.014946307484 0.015434006414 0.015931476589 0.016437711616 0.016951714306 0.017472229471 0.017997927422 0.018527373417 
0.019059044168 0.019591269952 0.011133967174 0.011524476049 0.011929189882 0.01234830948 0.012781955351 0.013230177716 0.013692902726 
0.014169989256 0.014661158098 0.015165954134 0.015683840759 0.016214081108 0.016755796883 0.017307983554 0.017869451046 0.018438815337 
0.019014658207 0.019595309077 0.02017906718 0.020764089982 0.011564056782 0.011981477383 0.012414827927 0.012864396124 0.013330394076 
0.013812935436 0.014312015009 0.014827539588 0.015359240251 0.015906704402 0.016469431382 0.017046568948 0.017637179011 0.018240259788 
0.018854377571 0.019478095015 0.020109767618 0.020747604794 0.021389648442 0.022033812228 0.012012148849 0.012458390879 0.012922486348 
0.01340483079 0.013905748227 0.014425434117 0.01496398146 0.015521330646 0.016097307469 0.01669147404 0.017303319488 0.017932005157 
0.018576643961 0.019235930243 0.019908495681 0.020592655131 0.021286586942 0.021988263817 0.022695467844 0.023405885713 0.012476256009 
0.012953273175 0.013450271512 0.013967805175 0.014506318066 0.01506612938 0.015647415969 0.016250197317 0.016874330869 0.017519498653 
0.018185134525 0.018870559362 0.01957460912 0.020296076654 0.021033387507 0.021784654355 0.022547914781 0.023320799891 0.024100933958 
0.024885551271 0.012954158613 0.013463918995 0.013996061471 0.01455128142 0.015130176577 0.0157331813 0.0163606323 0.017012639346 
0.017689178427 0.018389977794 0.019114538475 0.019862085627 0.020631595843 0.021421700866 0.022230636054 0.023056494987 0.02389692392 
0.024749393215 0.025611115709 0.02647892416 0.01344384048 0.013988401567 0.014557995765 0.015153490552 0.015775663625 0.016425138312 
0.017102407471 0.017807713421 0.018541161524 0.01930253569 0.020091510183 0.020907278625 0.021748849054 0.022614716317 0.023503134547 
0.024411864854 0.025338401674 0.026279920457 0.027233079324 0.028194546479 0.01394412524 0.014525607728 0.015135074992 0.015773596443 
0.016442157598 0.017141600344 0.01787260417 0.01863562161 0.019430898738 0.020258395804 0.02111784282 0.02200858562 0.022929544657 
0.023879277951 0.02485588074 0.025856985981 0.026879833053 0.027921184395 0.028977332954 0.030044397427 0.0078085358258 0.0079985974087 
0.0081921419435 0.0083890701722 0.0085892715336 0.0087925849675 0.0089988466231 0.0092078429602 0.0094193317075 0.0096330560175 0.0098487360727 
0.010066049574 0.010284638924 0.010504108601 0.010724039941 0.010944002867 0.011163490262 0.011382024886 0.011599069532 0.011814090548 
0.0080726012916 0.0082742360435 0.0084797720677 0.0086891236045 0.0089021605007 0.0091187413289 0.0093386693894 0.0095617230217 0.0097876662342 
0.010016214592 0.010247054825 0.010479849914 0.010714207457 0.010949712959 0.011185903142 0.01142229525 0.011658386534 0.011893597554 
0.012127374669 0.012359133841 0.0083451835978 0.008559138288 0.0087774831106 0.0090001047582 0.0092268855527 0.0094576702977 0.0096922603899 
0.0099304422457 0.010171935222 0.01041644815 0.010663646476 0.010913152402 0.011164566709 0.011417435222 0.011671224415 0.011925450905 
0.012179535516 0.012432870388 0.012684837231 0.012934814894 0.0086267556026 0.0088538689827 0.009085885427 0.0093227074915 0.0095642222886 
0.0098102505862 0.010060615155 0.010315067282 0.010573322249 0.010835068724 0.01109993435 0.011367551763 0.011637432905 0.011909091179 
0.012182018518 0.012455631136 0.012729302153 0.013002375684 0.013274184789 0.013544035019 0.0089182984029 0.0091594628088 0.0094061329423 
0.009658177255 0.009915499098 0.010177946926 0.010445293458 0.010717300482 0.010993654698 0.011274051678 0.011558084537 0.011845313025 
0.012135255657 0.012427392375 0.012721149206 0.013015895658 0.013310940857 0.013605603619 0.013899122885 0.014190751993 0.0092211936117 
0.0094774151071 0.009739778145 0.010008191868 0.01028254882 0.010562677101 0.010848374433 0.011139360645 0.011435360857 0.011735975827 
0.012040818219 0.012349412284 0.012661236629 0.012975711594 0.013292236641 0.013610119873 0.013928607017 0.01424691925 0.014564296025 
0.014879893569 0.0095370874775 0.0098094542725 0.010088690358 0.010374730358 0.010667460401 0.010966703376 0.011272270154 0.011583853959 
0.01190115985 0.01222379626 0.01255133248 0.01288324466 0.01321899334 0.013557948844 0.013899452478 0.014242710179 0.014586974744 
0.014931384955 0.015275059489 0.015617089476 0.0098676641916 0.01015737366 0.010454786424 0.010759840867 0.011072423355 0.01139238804 
0.011719488945 0.012053459 0.012393972315 0.012740634288 0.013092958294 0.01345041379 0.013812414364 0.014178262887 0.01454720343 
0.014918472026 0.015291183208 0.015664418075 0.016037168471 0.016408426103 0.01021450753 0.010522888288 0.010839900755 0.011165485597 
0.011499559529 0.011841945716 0.012192465765 0.012550821476 0.012916673214 0.013289583017 0.013669064194 0.014054559755 0.014445368853 
0.01484082283 0.015240078724 0.015642267733 0.016046452136 0.016451577702 0.016856561429 0.017260323009 0.010579002321 0.010907480529 
0.011245620542 0.011593402978 0.011950736927 0.012317499334 0.012693484799 0.013078409473 0.013471920342 0.013873570604 0.014282861664 
0.014699124028 0.015121703361 0.015549804418 0.015982550449 0.016418962543 0.016857982655 0.017298491705 0.017739304068 0.018179144099 
0.010962222752 0.011312327389 0.011673266202 0.012045028393 0.012427581633 0.012820801697 0.013224495647 0.013638397483 0.014062152023 
0.014495292302 0.014937259416 0.015387420361 0.015845010842 0.016309176111 0.016778937026 0.017253235918 0.017730928542 0.018210781012 
0.018691438166 0.019171473512 0.011364958165 0.01173834794 0.012123867863 0.012521558021 0.012931419373 0.013353361871 0.01378721791 
0.01423272597 0.014689517389 0.015157148282 0.015635046716 0.016122492049 0.01661867537 0.017122676031 0.017633407556 0.018149740194 
0.018670424085 0.019193980621 0.019718980731 0.020243832068 0.01178761148 0.012186036721 0.01259805016 0.013023742706 0.013463162837 
0.013916280183 0.014382916663 0.01486287622 0.015355798189 0.015861227603 0.016378544872 0.016907021577 0.017445769109 0.017993819241 
0.018549932726 0.019112906851 0.019681262385 0.020253489311 0.020827922709 0.021402791773 0.012230200367 0.012655505377 0.013096021312 
0.013551918913 0.014023309419 0.014510193926 0.015012488405 0.015529980841 0.016062367385 0.016609160292 0.017169746427 0.017743361662 
0.018329056044 0.018925714538 0.019532132354 0.020146812292 0.020768214508 0.021394614751 0.022024144228 0.022654846807 0.012692280569 
0.01314639661 0.013617539189 0.014105976742 0.014611872655 0.01513533875 0.015676320453 0.016234672301 0.01681010833 0.017402153748 
0.01801019706 0.018633429542 0.019270870502 0.019921312788 0.020583347675 0.021255400786 0.021935774206 0.022622507627 0.023313536324 
0.024006623436 0.013173002153 0.013657940676 0.01416193981 0.014685353913 0.015228472987 0.015791474715 0.016374398631 0.016977167698 
0.017599549493 0.018241059851 0.018901102372 0.019578817325 0.020273228374 0.020982965809 0.021706579795 0.022442315577 0.023188235411 
0.023942203914 0.024701861607 0.025464664841 0.013671149994 0.014188996029 0.014728157233 0.015289125482 0.015872308793 0.016477983601 
0.017106344339 0.017757319271 0.018430740417 0.019126232709 0.019843205789 0.020580780749 0.021337872715 0.022113117954 0.022904888823 