# vtk DataFile Version 5.1
vtk output
ASCII
DATASET POLYDATA
POINTS 4439 double
0.63499999046 -0.52113378048 1.0842021725e-16 0.68500000238 -0.52113378048 1.2143064332e-16 0.63499999046 -0.3793168962 1.0842021725e-16 
0.63499999046 -0.3793168962 1.0842021725e-16 0.68500000238 -0.52113378048 1.2143064332e-16 0.68500000238 -0.3793168962 1.2143064332e-16 
0.63499999046 -0.3793168962 1.0842021725e-16 0.68500000238 -0.3793168962 1.2143064332e-16 0.68500000238 -0.23749999702 1.2143064332e-16 
0.75999999046 -0.23749999702 1.4094627467e-16 0.75999999046 -0.13750000298 1.4094627467e-16 0.68500000238 -0.23749999702 1.2143064332e-16 
0.68500000238 -0.23749999702 1.2143064332e-16 0.75999999046 -0.13750000298 1.4094627467e-16 0.56000000238 -0.13750000298 8.8904585899e-17 
0.68500000238 -0.23749999702 1.2143064332e-16 0.56000000238 -0.13750000298 8.8904585899e-17 0.63499999046 -0.23749999702 1.0842021725e-16 
0.63499999046 -0.23749999702 1.0842021725e-16 0.56000000238 -0.13750000298 8.8904585899e-17 0.56000000238 -0.23749999702 8.8904585899e-17 
0.63499999046 -0.23749999702 1.0842021725e-16 0.63499999046 -0.3793168962 1.0842021725e-16 0.68500000238 -0.23749999702 1.2143064332e-16 
0.66421833689 -0.46218997352 1.1602307816e-16 0.65578165596 -0.43826070316 1.1382778241e-16 0.66421833883 -0.29644380467 1.1602307866e-16 
0.63619570066 -0.19845655797 1.0873135116e-16 0.5975 -0.18750000477 9.8662402504e-17 0.65999999642 -0.23749999702 1.1492543028e-16 
0.61624999523 -0.21250000089 1.0354130988e-16 0.63501124214 -0.21796031269 1.0842314503e-16 0.66059785152 -0.21797827749 1.1508099724e-16 
0.64749999344 -0.22773734958 1.1167282377e-16 0.64781087958 -0.20894978841 1.1175371897e-16 0.6724999994 -0.22811279671 1.181780368e-16 
0.59809785152 -0.16797828047 9.8817968527e-17 0.57875000119 -0.16250000387 9.3783494201e-17 0.61714677609 -0.18321741922 1.0377465984e-16 
0.61000343275 -0.19765367671 1.0191590148e-16 0.65578165402 -0.32037308855 1.138277819e-16 0.65999999642 -0.49681259539 1.1492543028e-16 
0.65999999642 -0.40363808128 1.1492543028e-16 0.65999999642 -0.34154381872 1.1492543028e-16 0.65999999642 -0.2752730745 1.1492543028e-16 
0.63499999046 -0.4418168962 1.0842021725e-16 0.68500000238 -0.45863378048 1.2143064332e-16 0.68500000238 -0.29999999702 1.2143064332e-16 
0.63499999046 -0.3168168962 1.0842021725e-16 0.72249999285 -0.18750000477 1.3118845806e-16 0.72249999642 -0.2265624986 1.3118845899e-16 
0.75999999046 -0.20000000298 1.4094627467e-16 0.74958332462 -0.16875000298 1.382357701e-16 0.59749999285 -0.18749999523 9.8662400643e-17 
0.56000000238 -0.20000000298 8.8904585899e-17 0.5787499994 -0.22812499851 9.3783493736e-17 0.5805729173 -0.19921875338 9.4257832394e-17 
0.60304765343 -0.22212949195 1.0010594886e-16 0.57172416451 -0.21049875907 9.1955312062e-17 0.58592122183 -0.21505317102 9.5649506476e-17 
0.58337970527 -0.18518852292 9.4988182368e-17 0.56000000238 -0.21875 8.8904585899e-17 0.56000000238 -0.16875000298 8.8904585899e-17 
0.57874999762 -0.16249999911 9.3783493271e-17 0.61624999166 -0.21249999613 1.0354130895e-16 0.59749999642 -0.23749999702 9.8662401574e-17 
0.5981592829 -0.20653677705 9.8833953491e-17 0.62562499106 -0.22499999657 1.059807631e-16 0.61937499046 -0.23749999702 1.0435446007e-16 
0.57268475643 -0.17555426165 9.2205266206e-17 0.56520833034 -0.15312500298 9.0259836891e-17 0.68949568809 -0.21567974624 1.2260045877e-16 
0.61566377236 -0.15702579827 1.0338876973e-16 0.59710143629 -0.16615982271 9.8558692856e-17 0.62250000238 -0.13750000298 1.0516761461e-16 
0.60880430411 -0.17654344203 1.0160387806e-16 0.65999999642 -0.13750000298 1.1492543028e-16 0.58440215325 -0.15702172251 9.525423198e-17 
0.57562500238 -0.14298095678 9.2970343076e-17 0.59125000238 -0.13750000298 9.7036100254e-17 0.6412499994 -0.13750000298 1.1004652245e-16 
0.60687500238 -0.14298911446 1.0110185743e-16 0.66595107782 -0.22226085827 1.16473952e-16 0.65062499791 -0.15275780234 1.1248597636e-16 
0.62573149067 -0.17152829452 1.060084752e-16 0.70999999344 -0.13750000298 1.2793585248e-16 0.63292836012 -0.15312223457 1.0788116151e-16 
0.71082457345 -0.17824169807 1.2815041517e-16 0.72249999642 -0.1875 1.3118845899e-16 0.66835761339 -0.15314434068 1.1710015292e-16 
0.67206240891 -0.19586016351 1.1806417205e-16 0.68705163284 -0.13966003085 1.2196449492e-16 0.6733799592 -0.14040667303 1.1840700978e-16 
0.6864978762 -0.15859274251 1.2182040276e-16 0.70168188686 -0.16647552036 1.2577141078e-16 0.7037499994 -0.21249999851 1.2630955116e-16 
0.64690215325 -0.20702171953 1.1151726069e-16 0.63579188076 -0.1807126927 1.086262738e-16 0.69955367735 -0.14950015318 1.2521763266e-16 
0.73017085431 -0.17372189541 1.3318448111e-16 0.72109782167 -0.16082389922 1.3082360126e-16 0.74124999344 -0.16250000149 1.3606736683e-16 
0.68688977467 -0.17267033768 1.2192237805e-16 0.68953667513 -0.20107514057 1.2261112394e-16 0.64201920923 -0.16471715853 1.1024667735e-16 
0.64858466299 -0.18539343428 1.1195506396e-16 0.70682570228 -0.195275528 1.2710987506e-16 0.6968790454 -0.18395414188 1.245216708e-16 
0.64039092168 -0.19563561154 1.0982298315e-16 0.62785322868 -0.19178258078 1.0656056938e-16 0.65749726942 -0.19696635026 1.1427419954e-16 
0.66019540407 -0.17032609002 1.1497627701e-16 0.67399453946 -0.16635177676 1.1856692877e-16 0.67940130064 -0.22497322668 1.1997381376e-16 
0.73290023127 -0.14090595441 1.3389468808e-16 0.73183365168 -0.15372969161 1.3361715505e-16 0.74751384044 -0.14766663883 1.3769727281e-16 
0.68500000238 0.52397298813 -1.4035299488e-19 0.63499999046 0.52397298813 -1.1958480322e-19 0.68500000238 0.38823649287 1.2143064332e-16 
0.68500000238 0.38823649287 1.2143064332e-16 0.63499999046 0.52397298813 -1.1958480322e-19 0.63499999046 0.38823649287 1.2145141151e-16 
0.68500000238 0.38823649287 1.2143064332e-16 0.63499999046 0.38823649287 1.2145141151e-16 0.63499999046 0.25249999762 2.4302240782e-16 
0.56000000238 0.25249999762 2.430535601e-16 0.56000000238 0.15250000358 3.3261752654e-16 0.63499999046 0.25249999762 2.4302240782e-16 
0.63499999046 0.25249999762 2.4302240782e-16 0.56000000238 0.15250000358 3.3261752654e-16 0.75999999046 0.15250000358 3.325344538e-16 
0.63499999046 0.25249999762 2.4302240782e-16 0.75999999046 0.15250000358 3.325344538e-16 0.68500000238 0.25249999762 2.4300163963e-16 
0.68500000238 0.25249999762 2.4300163963e-16 0.75999999046 0.15250000358 3.325344538e-16 0.75999999046 0.25249999762 2.4297048736e-16 
0.68500000238 0.25249999762 2.4300163963e-16 0.68500000238 0.38823649287 1.2143064332e-16 0.63499999046 0.25249999762 2.4302240782e-16 
0.65660346703 0.46532539823 5.2398552762e-17 0.66339652582 0.44688408277 6.8912505753e-17 0.65660346703 0.31114758751 1.9048632366e-16 
0.68380429219 0.21345655856 2.7797099102e-16 0.72249999285 0.20250000536 2.8776804245e-16 0.66339652582 0.32958890298 1.7396672748e-16 
0.65999999642 0.49987927925 2.144931372e-17 0.65999999642 0.41233020175 9.9861744795e-17 0.65999999642 0.35367097778 1.523992756e-16 
0.65999999642 0.28706551271 2.1205377554e-16 0.63499999046 0.31499999762 1.8704492546e-16 0.68500000238 0.32573649287 1.7740812568e-16 
0.68500000238 0.45073649287 6.5453160953e-17 0.63499999046 0.46147298813 5.5857897562e-17 0.5975 0.20250000536 2.8781996291e-16 
0.61624999523 0.22750000149 2.6542118537e-16 0.60374999046 0.25249999762 2.4303538794e-16 0.56000000238 0.2025000006 2.8783554332e-16 
0.61937499046 0.24468750088 2.5002608026e-16 0.60166666643 0.21890625142 2.7312414664e-16 0.60263392664 0.23631696447 2.5753001875e-16 
0.58187499642 0.25015624122 2.4514363534e-16 0.56000000238 0.22749999911 2.6544455171e-16 0.57172840261 0.23806448943 2.5597770303e-16 
0.58610477515 0.23154653422 2.6180947117e-16 0.57530365943 0.21499999985 2.7663369093e-16 0.5890134825 0.21338753542 2.7807218355e-16 
0.57780350493 0.19632138047 2.9336196598e-16 0.57875000119 0.17750000447 3.1021874473e-16 0.56000000238 0.18375000358 3.0462878536e-16 
0.5652083353 0.16812500358 3.186209926e-16 0.7225 0.20249999583 2.8776805099e-16 0.75999999046 0.21500000358 2.7655697144e-16 
0.74958333456 0.18375000358 3.0455003932e-16 0.72249999642 0.24156249175 2.5278212816e-16 0.63050430476 0.23067974684 2.6256735842e-16 
0.70433622049 0.17202579887 3.1506949673e-16 0.72289855655 0.18115982331 3.0688099153e-16 0.69749999046 0.15250000358 3.3256041404e-16 
0.71119568874 0.19154344263 2.975858706e-16 0.65999999642 0.15250000358 3.3257599017e-16 0.7355978396 0.1720217231 3.150601622e-16 
0.74437499046 0.15798095737 3.2763198395e-16 0.72874999046 0.15250000358 3.3254743392e-16 0.67874999344 0.15250000358 3.3256820211e-16 
0.71312499046 0.15798911506 3.2763765772e-16 0.65404891503 0.23726085887 2.5666327352e-16 0.66937499493 0.16775780294 3.1890660502e-16 
0.69426850218 0.18652829511 3.0208466685e-16 0.6099999994 0.15250000358 3.3259675836e-16 0.68707163273 0.16812223516 3.1857285451e-16 
0.6091754194 0.19324169867 2.9610722056e-16 0.59749999642 0.2025000006 2.8781996718e-16 0.65164237946 0.16814434128 3.1856777142e-16 
0.64793758394 0.21086016411 2.8031132275e-16 0.63294836001 0.15466003144 3.3065261969e-16 0.64662003365 0.15540667363 3.2997821858e-16 
0.63350211665 0.1735927431 3.1369550115e-16 0.61831810599 0.18147552095 3.0664167911e-16 0.61624999344 0.22749999911 2.654211875e-16 
0.6730978396 0.22202172012 2.7030413921e-16 0.68420811209 0.1957126933 2.9386293377e-16 0.62044631549 0.16450015377 3.218446082e-16 
0.58982913854 0.188721896 3.0016337109e-16 0.59890217118 0.17582389981 3.1171156015e-16 0.5787499994 0.17750000209 3.1021874686e-16 
0.63311021817 0.18767033827 3.0108721057e-16 0.63046331772 0.21607514117 2.7564784034e-16 0.67798078362 0.17971715913 3.0819175609e-16 
0.67141532985 0.20039343488 2.8967598936e-16 0.61317429057 0.2102755286 2.8084938495e-16 0.62312094745 0.19895414247 2.9098513654e-16 
0.67960907117 0.21063561213 2.8049928523e-16 0.69214676417 0.20678258138 2.8394500491e-16 0.66250272343 0.21196635086 2.7931452813e-16 
[...]
CELL_DATA 5668
FIELD FieldData 4
electrode_index 1 5668 int
0 0 0 0 0 0 0 0 0 
0 0 0 0 0 0 0 0 0 
0 0 0 0 0 0 0 0 0 
0 0 0 0 0 0 0 0 0 
0 0 0 0 0 0 0 0 0 
0 0 0 0 0 0 0 0 0 
0 0 0 0 0 0 0 0 0 
0 0 0 0 0 0 0 0 0 
0 0 0 0 0 0 0 0 0 
0 0 0 0 0 0 0 0 0 
0 0 0 0 0 0 0 0 0 
0 0 0 0 0 0 0 0 0 
0 0 0 0 0 0 0 0 0 
0 0 0 0 0 0 0 0 0 
0 0 0 0 0 0 0 0 0 
0 0 0 0 0 0 0 0 0 
0 0 0 0 0 0 0 0 0 
0 1 1 1 1 1 1 1 1 
1 1 1 1 1 1 1 1 1 
1 1 1 1 1 1 1 1 1 
1 1 1 1 1 1 1 1 1 
1 1 1 1 1 1 1 1 1 
1 1 1 1 1 1 1 1 1 
1 1 1 1 1 1 1 1 1 
1 1 1 1 1 1 1 1 1 
1 1 1 1 1 1 1 1 1 
1 1 1 1 1 1 1 1 1 
1 1 1 1 1 1 1 1 1 
1 1 1 1 1 1 1 1 1 
1 1 1 1 1 1 1 1 1 
1 1 1 1 1 1 1 1 1 
1 1 1 1 1 1 1 1 1 
1 1 1 1 2 2 2 2 2 
2 2 2 2 2 2 2 2 2 
2 2 2 2 2 2 2 2 2 
2 2 2 2 2 2 2 2 2 
2 2 2 2 2 2 2 2 2 
2 2 2 2 2 2 2 2 2 
2 2 2 2 2 2 2 2 2 
2 2 2 2 2 2 2 2 2 
2 2 2 2 2 2 2 2 2 
2 2 2 2 2 2 2 2 2 
2 2 2 2 2 2 2 2 2 
2 2 2 2 2 2 2 2 2 
2 2 2 2 2 2 2 2 2 
2 2 2 2 2 2 2 2 2 
2 2 2 2 2 2 2 2 2 
2 2 2 2 2 2 2 2 2 
2 2 2 2 2 2 2 2 2 
2 2 2 2 2 2 2 2 2 
2 2 2 2 2 2 2 2 2 
2 2 2 2 2 2 2 2 2 
2 2 2 2 2 2 2 2 2 
2 2 2 2 2 2 2 2 2 
2 2 2 2 2 2 2 2 2 
2 2 2 2 2 2 2 2 2 
2 2 2 2 2 2 2 2 2 
2 2 2 3 3 3 3 3 3 
3 3 3 3 3 3 3 3 3 
3 3 3 3 3 3 3 3 3 
3 3 3 3 3 3 3 3 3 
3 3 3 3 3 3 3 3 3 
3 3 3 3 3 3 3 3 3 
3 3 3 3 3 3 3 3 3 
3 3 3 3 3 3 3 3 3 
3 3 3 3 3 3 3 3 3 
3 3 3 3 3 3 3 3 3 
3 3 3 3 3 3 3 3 3 
3 3 3 3 3 3 3 3 3 
3 3 3 3 3 3 3 3 3 
3 3 3 3 3 3 3 3 3 
3 3 3 3 3 3 3 3 3 
3 3 3 3 3 3 3 3 3 
3 3 3 3 4 4 4 4 4 
4 4 4 4 4 4 4 4 4 
4 4 4 4 4 4 4 4 4 
4 4 4 4 4 4 4 4 4 
4 4 4 4 4 4 4 4 4 
4 4 4 4 4 4 4 4 4 
4 4 4 4 4 4 4 4 4 
4 4 4 4 4 4 4 4 4 
4 4 4 4 4 4 4 4 4 
4 4 4 4 4 4 4 4 4 
4 4 4 4 4 4 4 4 4 
4 4 4 4 4 4 4 4 4 
4 4 4 4 4 4 4 4 4 
4 4 4 4 4 4 4 4 4 
4 4 4 4 4 4 4 4 4 
4 4 4 4 4 4 4 4 4 
4 4 4 4 4 4 4 4 4 
4 4 4 4 4 4 4 4 4 
4 4 4 4 4 4 4 4 4 
4 4 4 4 4 4 4 4 4 
4 4 4 4 4 4 4 4 4 
4 4 4 4 4 4 4 4 4 
4 4 4 4 4 4 4 4 4 
4 4 4 4 4 4 4 4 4 
4 4 4 4 4 4 4 5 5 
5 5 5 5 5 5 5 5 5 
5 5 5 5 5 5 5 5 5 
5 5 5 5 5 5 5 5 5 
5 5 5 5 5 5 5 5 5 
5 5 5 5 5 5 5 5 5 
5 5 5 5 5 5 5 5 5 
5 5 5 5 5 5 5 5 5 
5 5 5 5 5 5 5 5 5 
5 5 5 5 5 5 5 5 5 
5 5 5 5 5 5 5 5 5 
5 5 5 5 5 5 5 5 5 
5 5 5 5 5 5 5 5 5 
5 5 5 5 5 5 5 5 5 
5 5 5 5 5 5 5 5 5 
5 5 5 5 5 5 5 5 5 
5 5 5 5 5 5 5 5 5 
5 5 5 5 5 5 5 5 6 
6 6 6 6 6 6 6 6 6 
6 6 6 6 6 6 6 6 6 
6 6 6 6 6 6 6 6 6 
6 6 6 6 6 6 6 6 6 
6 6 7 7 7 7 7 7 7 
7 7 7 7 7 7 7 7 7 
7 7 7 7 7 7 7 7 7 
7 7 7 7 7 7 7 7 7 
7 7 7 7 7 8 8 8 8 
8 8 8 8 8 8 8 8 8 
8 8 8 8 8 8 8 8 8 
8 8 8 8 8 8 8 8 8 
8 8 8 8 8 8 8 8 9 
9 9 9 9 9 9 9 9 9 
9 9 9 9 9 9 9 9 9 
9 9 9 9 9 9 9 9 9 
9 9 9 9 9 9 9 9 9 
9 9 9 9 9 9 9 9 9 
9 9 9 9 9 9 9 9 9 
9 9 9 9 9 9 9 9 9 
9 9 9 9 9 9 9 9 9 
9 9 9 9 9 9 9 9 9 
9 9 9 9 9 9 9 9 9 
9 9 9 9 9 9 9 9 9 
9 9 9 9 9 9 9 9 9 
9 9 9 9 9 9 9 9 9 
9 9 9 9 9 9 9 9 9 
9 9 9 9 9 9 9 9 9 
9 9 9 9 9 9 9 9 9 
9 9 9 9 9 9 9 9 9 
9 9 9 9 9 9 9 9 9 
9 9 9 9 9 9 9 9 9 
9 9 9 9 9 9 9 9 9 
9 9 9 9 9 9 9 9 9 
9 9 9 9 9 9 9 9 9 
9 9 9 9 9 9 9 9 9 
9 9 9 9 9 9 9 9 9 
9 9 9 9 9 9 9 9 9 
9 9 9 9 9 9 9 9 9 
9 9 9 9 9 9 9 9 9 
9 9 9 9 9 9 9 9 9 
9 9 9 9 9 9 9 9 9 
9 9 9 9 9 9 9 9 9 
9 9 9 9 9 9 9 9 9 
9 9 9 9 9 9 9 9 9 
9 9 9 9 9 9 9 9 9 
9 9 9 9 9 9 9 9 9 
9 9 9 9 9 9 9 9 9 
9 9 9 9 9 9 9 9 9 
9 9 9 9 9 9 9 9 9 
9 9 9 9 9 9 9 9 9 
9 9 9 9 9 9 9 9 9 
9 9 9 9 9 9 9 9 9 
9 9 9 9 9 9 9 9 9 
9 9 9 9 9 9 9 9 9 
9 9 9 9 9 9 9 9 9 
9 9 9 9 9 9 9 9 9 
9 9 9 9 9 9 9 9 9 
9 9 9 9 9 9 9 9 9 
9 9 9 9 9 9 9 9 9 
9 9 9 9 9 9 9 9 9 
9 9 9 9 9 9 9 9 9 
9 9 9 9 9 9 9 9 9 
9 9 9 9 9 9 9 9 9 
9 9 9 9 9 9 9 9 9 
9 9 9 9 9 9 9 9 9 
9 9 9 9 9 9 9 9 9 
9 9 9 9 9 9 9 9 9 
9 9 9 9 9 9 9 9 9 
9 9 9 9 9 9 9 9 9 
9 9 9 9 9 9 9 9 9 
9 9 9 9 9 9 9 9 9 
9 9 9 9 9 9 9 9 9 
9 9 9 9 9 9 9 9 9 
9 9 9 9 9 9 9 9 9 
9 9 9 10 10 10 10 10 10 
10 10 10 10 10 10 10 10 10 
10 10 10 10 10 10 10 10 10 
10 10 10 10 10 10 10 10 10 
10 10 10 10 10 10 10 10 10 
10 10 10 10 10 10 10 10 10 
10 10 10 10 10 10 10 10 10 
10 10 10 10 10 10 10 10 10 
10 10 10 10 10 10 10 10 10 
10 10 10 10 10 10 10 10 10 
10 10 10 10 10 10 10 10 10 
10 10 10 10 10 10 10 10 10 
10 10 10 10 10 10 10 10 10 
10 10 10 10 10 10 10 10 10 
10 10 10 10 10 10 10 10 10 
10 10 10 10 10 10 10 10 10 
10 10 10 10 10 10 10 10 10 
10 10 10 10 10 10 10 10 10 
10 10 10 10 10 10 10 10 10 
10 10 10 10 10 10 10 10 10 
10 10 10 10 10 10 10 10 10 
10 10 10 10 10 10 10 10 10 
10 10 10 10 10 10 10 10 10 
10 10 10 10 10 10 10 10 10 
10 10 10 10 10 10 10 10 10 
10 10 10 10 10 10 10 10 10 
10 10 10 10 10 10 10 10 10 
10 10 10 10 10 10 10 10 10 
10 10 10 10 10 10 10 10 10 
10 10 10 10 10 10 10 10 10 
10 10 10 10 10 10 10 10 10 
10 10 10 10 10 10 10 10 10 
10 10 10 10 10 10 10 10 10 
10 10 10 10 10 10 10 10 10 
10 10 10 10 10 10 10 10 10 
10 10 10 10 10 10 10 10 10 
10 10 10 10 10 10 10 10 10 
10 10 10 10 10 10 10 10 10 
10 10 10 10 10 10 10 10 10 
10 10 10 10 10 10 10 10 10 
10 10 10 10 10 10 10 10 10 
10 10 10 10 10 10 10 10 10 
10 10 10 10 10 10 10 10 10 
10 10 10 10 10 10 10 10 10 
10 10 10 10 10 10 10 10 10 
10 10 10 10 10 10 10 10 10 
10 10 10 10 10 10 10 10 10 
10 10 10 10 10 10 10 10 10 
10 10 10 10 10 10 10 10 10 
10 10 10 10 10 10 10 10 10 
10 10 10 10 10 10 10 10 10 
10 10 10 10 10 10 10 10 10 
10 10 10 10 10 10 10 10 10 
10 10 10 10 10 10 10 10 10 
10 10 10 10 10 10 10 10 10 
10 10 10 10 10 10 10 10 10 
10 10 10 10 10 10 10 10 10 
10 10 10 10 10 10 10 10 10 
10 10 10 10 10 10 10 10 10 
10 10 10 10 10 10 10 10 10 
10 10 10 10 10 10 10 10 10 
10 10 10 10 10 10 10 10 10 
10 10 10 10 10 10 10 10 10 
10 10 10 10 10 10 10 10 10 
10 10 10 10 10 10 10 10 10 
10 10 10 10 10 10 10 10 10 
10 10 10 10 10 10 10 10 10 
10 10 10 10 10 10 10 10 10 
10 10 10 10 10 10 10 10 10 
10 10 10 10 10 10 10 10 10 
10 10 10 10 10 10 10 10 10 
10 10 10 10 10 10 10 10 10 
10 10 10 10 10 10 10 10 10 
10 10 10 10 10 10 10 10 10 
10 10 10 10 10 10 10 10 10 
10 10 10 10 10 10 10 10 10 
10 10 10 10 10 10 10 10 10 
10 10 10 10 10 10 10 10 10 
10 10 10 10 10 10 10 10 10 
10 10 10 10 10 10 10 10 10 
10 10 10 10 10 10 10 10 10 
10 10 10 10 10 10 10 10 10 
10 10 10 10 10 10 10 10 10 
10 10 10 10 10 10 10 10 10 
10 10 10 10 10 10 10 10 10 
10 10 10 10 10 10 10 10 10 
10 10 10 10 10 10 10 10 10 
10 10 10 10 10 10 10 10 10 
10 10 10 10 10 10 10 10 10 
10 10 10 10 10 10 10 10 10 
10 10 10 10 10 10 10 10 10 
10 10 10 10 10 10 10 10 10 
10 10 10 10 10 10 10 10 10 
10 10 10 10 10 10 10 10 10 
10 10 10 10 10 10 10 10 10 
10 10 10 10 10 10 10 10 10 
10 10 10 10 10 10 10 10 10 
10 10 10 10 10 10 10 10 10 
10 10 10 10 10 10 10 10 10 
10 10 10 10 10 10 10 10 10 
10 10 10 10 10 10 10 10 10 
10 10 10 10 10 10 10 10 10 
10 10 10 10 10 10 10 10 10 
10 10 10 10 10 10 10 10 10 
10 10 10 10 10 10 10 10 10 
10 10 10 10 10 10 10 10 10 
10 10 10 10 10 10 10 10 10 
10 10 10 10 10 10 10 10 10 
10 10 10 10 10 10 10 10 10 
10 10 10 10 10 10 10 10 10 
10 10 10 10 10 10 10 10 10 
10 10 10 10 10 10 10 10 10 
10 10 10 10 10 10 10 10 10 
10 10 10 10 10 10 10 10 10 
10 10 10 10 10 10 10 10 10 
10 10 10 10 10 10 10 10 10 
10 10 10 10 10 10 10 10 10 
10 10 10 10 10 10 10 10 10 
10 10 10 10 10 10 10 10 10 
10 10 10 10 10 10 10 10 10 
10 10 10 10 10 10 10 10 10 
10 10 10 10 10 10 10 10 10 
10 10 10 10 10 10 10 10 10 
10 10 10 10 10 10 10 10 10 
10 10 10 10 10 10 10 10 10 
10 10 10 10 10 10 10 10 10 
10 10 10 10 10 10 10 10 10 
10 10 10 10 10 10 10 10 10 
10 10 10 10 10 10 10 10 10 
10 10 10 10 10 10 10 10 10 
10 10 10 11 11 11 11 11 11 
11 11 11 11 11 11 11 11 11 
11 11 11 11 11 11 11 11 11 
11 11 11 11 11 11 11 11 11 
11 11 11 11 11 11 12 12 12 
12 12 12 12 12 12 12 12 12 
12 12 12 12 12 12 12 12 12 
12 12 12 12 12 12 12 12 12 
12 12 12 12 12 12 12 12 12 
12 12 12 12 12 12 12 12 12 
12 12 12 12 12 12 12 12 12 
12 12 12 12 12 12 12 12 12 
12 12 12 12 12 12 12 12 12 
12 12 12 12 12 12 12 12 12 
12 12 12 12 12 12 12 12 12 
12 12 12 12 12 12 12 12 12 
12 12 12 12 12 12 12 12 12 
12 12 12 12 12 12 12 12 12 
12 12 12 12 12 12 12 12 12 
12 12 12 12 12 12 12 12 12 
12 12 12 12 12 12 12 12 12 
12 12 12 12 12 12 12 12 12 
12 12 12 12 12 12 12 12 12 
12 12 12 12 12 12 12 12 12 
12 12 12 12 12 12 12 12 12 
12 12 12 12 12 12 12 12 12 
12 12 12 12 12 12 12 12 12 
12 12 12 12 12 12 12 12 12 
12 12 12 12 12 12 12 12 12 
12 12 12 12 12 12 12 12 12 
12 12 12 12 12 12 12 12 12 
12 12 12 12 12 12 12 12 12 
12 12 12 12 12 12 12 12 12 
12 12 12 12 12 12 12 12 12 
12 12 12 12 12 12 12 12 12 
12 12 12 12 12 12 12 12 12 
12 12 12 12 12 12 12 12 12 
12 12 12 12 12 12 12 12 12 
12 12 12 12 12 12 12 12 12 
12 12 12 12 12 12 12 12 12 
12 12 12 12 12 12 12 12 12 
12 12 12 12 12 12 12 12 12 
12 12 12 12 12 12 12 12 12 
12 12 12 12 12 12 12 12 12 
12 12 12 12 12 12 12 12 12 
12 12 12 12 12 12 12 12 12 
12 12 12 12 12 12 12 12 12 
12 12 12 12 12 12 12 12 12 
12 12 12 12 12 12 12 12 12 
12 12 12 12 12 12 12 12 12 
12 12 12 12 12 12 12 12 12 
12 12 12 12 12 12 12 12 12 
12 12 12 12 12 12 12 12 12 
12 12 12 12 12 12 12 12 12 
12 12 12 12 12 12 12 12 12 
12 12 12 12 12 12 12 12 12 
12 12 12 12 12 12 12 12 12 
12 12 12 12 12 12 12 12 12 
12 12 12 12 12 12 12 12 12 
12 12 12 12 12 12 12 12 12 
12 12 12 12 12 12 12 12 12 
12 12 12 12 12 12 12 12 12 
12 12 12 12 12 12 12 12 12 
12 12 12 12 12 12 12 12 12 
12 12 12 12 12 12 12 12 12 
12 12 12 12 12 12 12 12 12 
12 12 12 12 12 12 12 12 12 
12 12 12 12 12 12 12 12 12 
12 12 12 12 12 12 12 12 12 
12 12 12 12 12 12 12 12 12 
12 12 12 12 12 12 12 12 12 
12 12 12 12 12 12 12 12 12 
12 12 12 12 12 12 12 12 12 
12 12 12 12 12 12 12 12 12 
12 12 12 12 12 12 12 12 12 
12 12 12 12 12 12 12 12 12 
12 12 12 12 12 12 12 12 12 
12 12 12 12 12 12 12 12 12 
12 12 12 12 12 12 12 12 12 
12 12 12 12 12 12 12 12 12 
12 12 12 12 12 12 12 12 12 
12 12 12 12 12 12 12 12 12 
12 12 12 12 12 12 12 12 12 
12 12 12 12 12 12 12 12 12 
12 12 12 12 12 12 12 12 12 
12 12 12 12 12 12 12 12 12 
12 12 12 12 12 12 12 12 12 
12 12 12 12 12 12 12 12 12 
12 12 12 12 12 12 12 12 12 
12 12 12 12 12 12 12 12 12 
12 12 12 12 12 12 12 12 12 
12 12 12 12 12 12 12 12 12 
12 12 12 12 12 12 12 12 12 
12 12 12 12 12 12 12 12 12 
12 12 12 12 12 12 12 12 12 
12 12 12 12 12 12 12 12 12 
12 12 12 12 12 12 12 12 12 
12 12 12 12 12 12 12 12 12 
12 12 12 12 12 12 12 12 12 
12 12 12 12 12 12 12 12 12 
12 12 12 12 12 12 12 12 12 
12 12 12 12 12 12 12 12 12 
12 12 12 12 12 12 12 12 12 
12 12 12 12 12 12 12 12 12 
12 12 12 12 12 12 12 12 12 
12 12 12 12 12 12 12 12 12 
12 12 12 12 12 12 12 12 12 
12 12 12 12 12 12 12 12 12 
12 12 12 12 12 12 12 12 12 
12 12 12 12 12 12 12 12 12 
12 12 12 12 12 12 12 12 12 
12 12 12 12 12 12 12 12 12 
12 12 12 12 12 12 12 12 12 
12 12 12 12 12 12 12 12 12 
12 12 12 12 12 12 12 12 12 
12 12 12 12 12 12 12 12 12 
12 12 12 12 12 12 12 12 12 
12 12 12 12 12 12 12 12 12 
12 12 12 12 12 12 12 12 12 
12 12 12 12 12 12 12 12 12 
12 12 12 12 12 12 12 12 12 
12 12 12 12 12 12 12 12 12 
12 12 12 12 12 12 12 12 12 
12 12 12 12 12 12 12 12 12 
12 12 12 12 12 12 12 12 12 
12 12 12 12 12 12 12 12 12 
12 12 12 12 12 12 12 12 12 
12 12 12 12 12 12 12 12 12 
12 12 12 12 12 12 12 12 12 
12 12 12 12 12 12 12 12 12 
12 12 12 12 12 12 12 12 12 
12 12 12 12 12 12 12 12 12 
12 12 12 12 12 12 12 12 12 
12 12 12 12 12 12 12 12 12 
12 12 12 12 12 12 12 12 12 
12 12 12 12 12 12 12 12 12 
12 12 12 12 12 12 12 12 12 
12 12 12 12 12 12 12 12 12 
12 12 12 12 12 12 12 12 12 
12 12 12 12 12 12 12 12 12 
12 12 12 12 12 12 12 12 12 
12 12 12 12 12 12 12 12 12 
12 12 12 12 12 12 12 12 12 
12 12 12 12 12 12 12 12 12 
12 12 12 12 12 12 12 12 12 
12 12 12 12 12 12 12 12 12 
12 12 12 12 12 12 12 12 12 
12 12 12 12 12 12 12 12 12 
12 12 12 12 12 12 12 12 12 
12 12 12 12 12 12 12 12 12 
12 12 12 12 12 12 12 12 12 
12 12 12 12 12 12 12 12 12 
12 12 12 12 12 12 12 12 12 
12 12 12 12 12 12 12 12 12 
12 12 12 12 12 12 12 12 12 
12 12 12 12 12 12 12 12 12 
12 12 12 12 12 12 12 12 12 
12 12 12 12 12 12 12 12 12 
12 12 12 12 12 12 12 12 12 
12 12 12 12 12 12 12 12 12 
12 12 12 12 12 12 12 12 12 
12 12 12 12 12 12 12 12 12 
12 12 12 12 12 12 12 12 12 
12 12 12 12 12 12 12 12 12 
12 12 12 12 12 12 12 12 12 
12 12 12 12 12 12 12 12 12 
12 12 12 12 12 12 12 12 12 
12 12 12 12 12 12 12 12 12 
12 12 12 12 12 12 12 12 12 
12 12 12 12 12 12 12 12 12 
12 12 12 12 12 12 12 12 12 
12 12 12 12 12 12 12 12 12 
12 12 12 12 12 12 12 12 12 
12 12 12 12 12 12 12 12 12 
12 12 12 12 12 12 12 12 12 
12 12 12 12 12 12 12 12 12 
12 12 12 12 12 12 12 12 12 
12 12 12 12 12 12 12 12 12 
12 12 12 12 12 12 12 12 12 
12 12 12 12 12 12 12 12 12 
12 12 12 12 12 12 12 12 12 
12 12 12 12 12 12 12 12 12 
12 12 12 12 12 12 12 12 12 
12 12 12 12 12 12 12 12 12 
12 12 12 12 12 12 12 12 12 
12 12 12 12 12 12 12 12 12 
12 12 12 12 12 12 12 12 12 
12 12 12 12 12 12 12 12 12 
12 12 12 12 12 12 12 12 12 
12 12 12 12 12 12 12 12 12 
12 12 12 12 12 12 12 12 12 
12 12 12 12 12 12 12 12 12 
12 12 12 12 12 12 12 12 12 
12 12 12 12 12 12 12 12 12 
12 12 12 12 12 12 12 12 12 
12 12 12 12 12 12 12 12 12 
12 12 12 12 12 12 12 12 12 
12 12 12 12 12 12 12 12 12 
12 12 12 12 12 12 12 12 12 
12 12 12 12 12 12 12 12 12 
12 12 12 12 12 12 12 12 12 
12 12 12 12 12 12 12 12 13 
13 13 13 13 13 13 13 13 13 
13 13 13 13 13 13 13 13 13 
13 13 13 13 13 13 13 13 13 
13 13 13 13 13 13 13 13 13 
13 13 14 14 14 14 14 14 14 
14 14 14 14 14 14 14 14 14 
14 14 14 14 14 14 14 14 14 
14 14 14 14 14 14 14 14 14 
14 14 14 14 14 15 15 15 15 
15 15 15 15 15 15 15 15 15 
15 15 15 15 15 15 15 15 15 
15 15 15 15 15 15 15 15 15 
15 15 15 15 15 15 15 15 16 
16 16 16 16 16 16 16 16 16 
16 16 16 16 16 16 16 16 16 
16 16 16 16 16 16 16 16 16 
16 16 16 16 16 16 16 16 16 
16 16 17 17 17 17 17 17 17 
17 17 17 17 17 17 17 17 17 
17 17 17 17 17 17 17 17 17 
17 17 17 17 17 17 17 17 17 
17 17 17 17 17 17 17 17 17 
17 17 17 17 17 17 17 17 17 
17 17 17 17 17 17 17 17 17 
17 17 17 17 17 17 17 17 17 
17 17 17 17 17 17 17 17 17 
17 17 17 17 17 17 17 17 17 
17 17 17 17 17 17 17 17 17 
17 17 17 17 17 17 17 17 17 
17 17 17 17 17 17 17 17 17 
17 17 17 17 17 17 17 17 17 
17 17 17 17 17 17 17 17 17 
17 17 17 17 17 18 18 18 18 
18 18 18 18 18 18 18 18 18 
18 18 18 18 18 18 18 18 18 
18 18 18 18 18 18 18 18 18 
18 18 18 18 18 18 18 18 18 
18 18 18 18 18 18 18 18 18 
18 18 18 18 18 18 18 18 18 
18 18 18 18 18 18 18 18 18 
18 18 18 18 18 18 18 18 18 
18 18 18 18 18 18 18 18 18 
18 18 18 18 18 18 18 18 18 
18 18 18 18 18 18 18 18 18 
18 18 18 18 18 18 18 18 18 
18 18 18 18 18 18 18 18 18 
18 18 18 18 18 18 18 18 18 
18 18 18 18 18 18 18 18 18 
18 18 18 18 18 18 18 18 18 
18 18 18 18 18 18 18 18 18 
18 18 18 18 18 18 18 18 18 
18 18 18 18 18 18 18 18 18 
18 18 18 18 18 18 18 18 18 
18 18 18 18 18 18 18 18 18 
18 18 18 18 18 18 18 18 18 
18 18 18 18 18 18 18 18 18 
18 18 18 18 18 18 18 18 18 
18 18 18 19 19 19 19 19 19 
19 19 19 19 19 19 19 19 19 
19 19 19 19 19 19 19 19 19 
19 19 19 19 19 19 19 19 19 
19 19 19 19 19 19 19 19 19 
19 19 19 19 19 19 19 19 19 
19 19 19 19 19 19 19 19 19 
19 19 19 19 19 19 19 19 19 
19 19 19 19 19 19 19 19 19 
19 19 19 19 19 19 19 19 19 
19 19 19 19 19 19 19 19 19 
19 19 19 19 19 19 19 19 19 
19 19 19 19 19 19 19 19 19 
19 19 19 19 19 19 19 19 19 
19 19 19 19 19 19 19 19 19 
19 19 19 19 19 19 19 19 19 
19 19 19 19 19 19 19 19 20 
20 20 20 20 20 20 20 20 20 
20 20 20 20 20 20 20 20 20 
20 20 20 20 20 20 20 20 20 
20 20 20 20 20 20 20 20 20 
20 20 21 21 21 21 21 21 21 
21 21 21 21 21 21 21 21 21 
21 21 21 21 21 21 21 21 21 
21 21 21 21 21 21 21 21 21 
21 21 21 21 21 21 21 21 21 
21 21 21 21 21 21 21 21 21 
21 21 21 21 21 21 21 21 21 
21 21 21 21 21 21 21 21 21 
21 21 21 21 21 21 21 21 21 
21 21 21 21 21 21 21 21 21 
21 21 21 21 21 21 21 21 21 
21 21 21 21 21 21 21 21 21 
21 21 21 21 21 21 21 21 21 
21 21 21 21 21 21 21 21 21 
21 21 21 21 21 21 21 21 21 
21 21 21 21 21 21 21 21 21 
21 21 21 21 21 21 21 21 21 
21 21 21 21 21 21 21 21 21 
21 21 21 21 21 21 21 21 21 
21 21 21 21 21 21 21 21 21 
21 21 21 21 21 21 21 21 21 
21 21 21 21 21 21 21 21 21 
21 21 21 21 21 21 21 21 21 
21 21 21 21 21 21 21 21 21 
21 21 21 21 21 21 21 21 21 
21 21 21 21 22 22 22 22 22 
22 22 22 22 22 22 22 22 22 
22 22 22 22 22 22 22 22 22 
22 22 22 22 22 22 22 22 22 
22 22 22 22 22 22 22 
area 1 5668 double
0.00099146128987 0.00099146128987 0.00094432716214 0.00073242166254 8.5639903084e-05 0.00018332513989 0.00017578119412 0.00094432716214 0.00060802977208 
0.00060802977208 0.00019048929792 0.00064942698606 0.00019192679017 0.0001220331221 0.0001215214248 0.0001249291004 0.00012206813312 0.00018619113538 
0.0001194841985 0.00011920468335 0.00011883636218 1.4654563573e-05 0.00011734003179 7.4768371213e-06 0.00019048929792 0.00019048929792 0.0001265169698 
6.1102234871e-05 0.00019192182624 0.00064942698606 0.00048408039625 0.00054877816829 0.00048408039625 0.00054877816829 0.00099146147614 0.0004840804228 
0.00099146147614 0.0004840804228 0.00091307332578 0.00091307332578 0.00047612727767 0.00047612727767 0.00032552080746 0.00041015612544 0.00070312477648 
0.00073242169048 0.00032552080746 0.00052083331057 0.00012765287566 0.00010229935072 0.00017022869226 0.00011966541926 0.00015483351995 0.00019819928194 
0.00012646641981 0.00017578119412 0.0001373098153 0.00011622794323 0.00010912109267 0.00010022187645 0.00019182709387 0.00013020830281 0.00011257475636 
0.00015007869305 9.9024394206e-05 0.00010342978974 0.00014322496773 9.7656253492e-05 0.00013231237264 0.00010991400242 0.00017010310023 0.00016811485343 
8.1380248432e-05 0.00016498155228 8.1380124256e-05 0.00015520957349 0.00019178160439 0.00018888476423 0.00010141833588 0.00017130773747 0.00013378286132 
0.00013374706143 0.00014981925603 0.00013671415022 0.00014645839784 0.00017041524089 1.2461270965e-05 8.5767366939e-05 0.00017674445564 8.4689364437e-05 
0.00010425208405 8.5639903084e-05 0.0001925172329 0.0001399782266 0.00010141833588 8.4689364437e-05 9.2139567086e-05 0.00011688795028 0.00013432972009 
0.00013709224271 0.00014304184629 0.00019636293627 0.00012921419842 0.00012921419842 0.00010402413371 0.00012107331855 0.00012671125418 0.00014836875056 
5.400069345e-05 9.2513910578e-05 0.00016949541809 2.486454446e-05 0.00012048897676 0.00010443706161 3.3283992171e-05 0.00012640972011 0.00010735121312 
0.00010533255328 0.00014526828696 8.9240749188e-05 5.8833775467e-05 0.00016456584133 0.00010815632239 0.00011439650248 0.00014006117016 9.7305945752e-05 
0.00018841219906 0.00017081022816 0.00011594215863 0.00014798877599 0.00012538693392 0.00018583570435 0.0001090577889 0.00011794996294 0.00012303310171 
9.3054987328e-05 9.3054987328e-05 0.00019947927021 0.00016873359086 0.00013282243372 0.00017650220796 0.00012770925703 0.00015391618052 0.00014483979949 
0.00019975566587 8.9528833289e-05 0.0001023270543 0.00018104119301 7.6651055361e-05 8.5148780711e-05 9.7305945752e-05 0.00014864967492 6.0764669987e-05 
0.00011649308145 0.00091545640897 0.00091545640897 0.00086413808339 0.00015414016537 8.5639903084e-05 0.00076195704633 0.00070312477648 0.00086413808339 
0.0006023428655 0.0006023428655 0.00067510864256 0.00097608620905 0.00076195719166 0.00047284111097 0.00067510864256 0.00051538107505 0.00047284111097 
0.00051538107505 0.00091545640897 0.00047284111097 0.00091545640897 0.00047284111097 0.00046586894457 0.00046586894457 0.00088739172997 0.00088739172997 
8.1380201866e-05 0.00013078956894 0.00013078956894 0.00014414407128 0.00014158503309 0.00012207033142 0.00012207026157 0.00010172519534 0.00012279688026 
0.00017569398591 0.00014660499405 5.126965724e-05 0.00019129570164 0.00012602482748 0.00012213323672 0.00015414016537 0.00011998528622 0.00016389026531 
9.2298300208e-05 0.00012291074084 0.00016690780984 0.00013344059522 0.000158549626 0.00018828159245 0.00017349258836 8.1380201866e-05 0.00013020832764 
0.00052083321123 0.0007324216346 0.00032552099373 0.00032552049702 0.00041015640483 0.00073242166254 0.00015520957349 0.00019178160439 0.00018888476423 
0.00010141833588 0.00017130773747 0.00013378286132 0.00013374706143 0.00014981925603 0.00013671415022 0.00014645839784 0.00017041524089 1.2461270965e-05 
8.5767366939e-05 0.00017674445564 8.4689364437e-05 0.00010425208405 8.5639903084e-05 0.0001925172329 0.0001399782266 0.00010141833588 8.4689364437e-05 