# vtk DataFile Version 5.1
vtk output
ASCII
DATASET STRUCTURED_POINTS
DIMENSIONS 50 50 50
SPACING 0.002 0.002 0.002
ORIGIN 0.2174 -0.052672 0.02732
POINT_DATA 125000
FIELD FieldData 1
potential 1 125000 double
0.0072978718128 0.0072467992877 0.0071953806013 0.0071436252061 0.0070915524641 0.0070392067721 0.0069866219 0.0069338434326 0.0068809177354 
0.0068278938728 0.0067748135614 0.0067217167962 0.0066686112504 0.0066155297003 0.0065624715514 0.0065094423464 0.0064564005231 0.0064033509657 
0.0063502653958 0.006297146675 0.0062439829612 0.0061907734407 0.0061375391251 0.0060842956835 0.0060310690083 0.0059778951279 0.0059248144278 
0.0058718771875 0.005819092203 0.0057665183019 0.0057141790465 0.0056621095429 0.0056103316312 0.0055588727443 0.0055077467875 0.0054569438831 
0.0054064870155 0.0053563848234 0.0053066492915 0.0052572885402 0.0052083232155 0.0051597566717 0.0051115971737 0.0050638752048 0.0050165909156 
0.0049697292854 0.0049233013407 0.0048772879801 0.0048316676826 0.0047864381841 0.0074496132316 0.0073967708868 0.0073435999693 0.0072901511597 
0.0072363238154 0.0071822370227 0.0071279200031 0.0070734259951 0.0070187806825 0.0069640526315 0.0069092751843 0.0068544827863 0.0067996902756 
0.006744938181 0.0066901965022 0.0066354919288 0.0065807843807 0.006526063569 0.0064713213773 0.006416534895 0.006361723583 0.0063068741349 
0.0062520038286 0.0061971380463 0.0061423006092 0.0060875334595 0.0060328685774 0.0059783495011 0.0059240217781 0.0058699220098 0.0058160738641 
0.0057625058185 0.0057092504327 0.0056563173955 0.0056037405268 0.0055515023719 0.0054996200458 0.0054480878764 0.0053969485518 0.0053461997945 
0.0052958598164 0.0052459453357 0.0051964525802 0.0051474040884 0.0050988117127 0.0050506681239 0.0050029769699 0.0049557202916 0.0049088761611 
0.0048624302899 0.0076015016274 0.0075468727775 0.0074919005027 0.007436613259 0.0073810211535 0.0073251411621 0.0072690595891 0.0072128614059 
0.007156480955 0.007100023976 0.0070435215952 0.0069870051253 0.0069305056831 0.0068740228603 0.0068175797316 0.0067611492489 0.006704745532 
0.0066483214969 0.0065918810764 0.0065354154934 0.0064789199085 0.0064224041962 0.0063658836019 0.0063093744201 0.0062529078279 0.0061965213986 
0.0061402607957 0.0060841605495 0.0060282661253 0.0059726180608 0.0059172496512 0.0058621735927 0.0058074312151 0.0057530212511 0.0056989575517 
0.0056452717393 0.0055919476182 0.0055390006661 0.0054864386848 0.0054342855599 0.0053825383803 0.0053312481521 0.0052803986631 0.005230002163 
0.0051800789513 0.0051306253558 0.0050816373747 0.0050330951147 0.0049849929422 0.0049373158293 0.0077528534762 0.0076963975127 0.0076395946036 
0.0075824841178 0.0075250897935 0.0074674302563 0.0074095696186 0.0073515419626 0.0072933880141 0.0072351719958 0.0071769597496 0.0071186999077 
0.0070604578726 0.0070022302668 0.006944046933 0.0068858868342 0.0068277352791 0.0067696007046 0.0067114389204 0.006653264267 0.0065950590546 
0.0065368461281 0.0064786431948 0.0064204661402 0.0063623629463 0.0063043476529 0.0062464749283 0.0061887860712 0.0061313203808 0.0060741166069 
0.0060171993213 0.0059606147861 0.0059043613119 0.0058484588863 0.0057929324042 0.0057377673996 0.0056829864915 0.005628593375 0.0055746024277 
0.0055210255168 0.0054678796768 0.0054151914039 0.0053629586683 0.0053111918298 0.0052599112091 0.0052091197957 0.0051588154867 0.0051089799846 
0.0050596007187 0.0050106543358 0.0079032067 0.0078448999406 0.0077862542505 0.0077272971177 0.0076680668981 0.007608594076 0.0075489138524 
0.0074890925714 0.0074291625365 0.0073691559428 0.007309130742 0.0072490886906 0.0071891195634 0.0071291308946 0.0070691787275 0.0070092602665 
0.0069493506643 0.0068894532964 0.0068295599122 0.0067696484706 0.0067097178422 0.00664979508 0.0065898880647 0.0065300297176 0.0064702509459 
0.0064105911172 0.0063511023286 0.0062918151233 0.0062327669866 0.0061740008714 0.0061155439686 0.0060574274786 0.0059996579875 0.0059422659776 
0.0058852420401 0.0058286022004 0.0057723598585 0.0057165050799 0.0056610715229 0.0056060516399 0.0055514912542 0.0054973880545 0.005443754238 
0.0053906167563 0.0053379625715 0.0052858186767 0.0052341690216 0.0051830181649 0.0051323387051 0.0050821160263 0.0080523362155 0.0079921513644 
0.0079316319689 0.00787080676 0.0078097157842 0.0077483975758 0.0076868858512 0.0076252358063 0.0075634885424 0.007501681909 0.0074398475961 
0.0073780264038 0.0073162290715 0.0072544604612 0.0071927055604 0.0071310266543 0.0070693466316 0.0070076681014 0.0069459978638 0.0068843379795 
0.0068226734219 0.0067610059884 0.0066993769104 0.0066378188485 0.0065763602669 0.0065150376023 0.0064539050532 0.0063930011288 0.0063323647744 
0.006272026495 0.0062120197892 0.0061523626541 0.0060930748544 0.0060341702601 0.0059756524742 0.0059175270948 0.0058598051596 0.0058024951269 
0.0057455907714 0.0056891238758 0.0056331178011 0.0055775852173 0.0055225452191 0.0054680097523 0.0054139803749 0.0053604710798 0.0053074730621 
0.0052549927907 0.0052029976834 0.0051514863105 0.0082001800142 0.0081380984573 0.0080756782317 0.0080129637516 0.0079500086316 0.0078868188872 
0.0078234462176 0.0077599468305 0.0076963581995 0.0076327216064 0.007569067703 0.0075054254384 0.0074418017691 0.0073782169001 0.0073146655613 
0.0072511473048 0.0071876582157 0.0071242048974 0.0070607395486 0.0069972899658 0.0069338702202 0.0068704387675 0.0068070738371 0.0067437953963 
0.0066806343133 0.0066176294556 0.0065548421403 0.0064923016316 0.0064300554899 0.0063681336094 0.0063065623776 0.0062453592827 0.0061845380481 
0.0061241149902 0.0060640863411 0.0060044682633 0.0059452521027 0.0058864686849 0.0058281015947 0.0057701732519 0.0057127148931 0.0056557370351 
0.0055992660649 0.0055433086939 0.0054878972863 0.0054330080417 0.0053786519831 0.0053248326053 0.0052715193334 0.0052187189788 0.0083470488651 
0.0082830260512 0.0082186852881 0.0081540521839 0.0080891623291 0.0080240717604 0.0079588030037 0.0078934540817 0.0078279979583 0.0077624970045 
0.0076969886057 0.0076314895258 0.0075660289164 0.0075005959813 0.0074352110703 0.0073698463736 0.007304523592 0.0072392300724 0.0071739358872 
0.00710866989 0.0070434550306 0.0069782571728 0.0069131354445 0.0068481125985 0.0067832304398 0.0067185304617 0.0066540667143 0.0065898756771 
0.0065260032296 0.0064624709772 0.0063993153603 0.0063365452165 0.0062741725467 0.0062122149392 0.0061506643952 0.00608952743 0.0060288196044 
0.0059685323486 0.0059086838877 0.0058492885344 0.0057903593661 0.0057319413792 0.0056740281316 0.005616649486 0.0055598191086 0.005503548967 
0.0054478215872 0.005392649199 0.0053380154162 0.0052838963246 0.0084933747856 0.008427407118 0.0083611029375 0.0082945238311 0.0082277000402 
0.0081606655138 0.0080934815297 0.0080261909385 0.0079588267244 0.0078914500648 0.0078240452194 0.0077566594562 0.0076893083523 0.0076219993465 
0.0075547308809 0.0074874937554 0.0074203059704 0.0073531477268 0.007286007344 0.0072189007214 0.0071518327643 0.0070848461021 0.0070179282618 
0.0069511328426 0.0068845116745 0.0068180923332 0.0067519164069 0.0066860449088 0.0066205136664 0.0065553673134 0.0064905998024 0.0064262399202 
0.0063623002931 0.0062987813548 0.0062356925603 0.0061730148647 0.0061107712871 0.0060489659284 0.0059876295136 0.0059267425433 0.0058663397878 
0.0058064370741 0.0057470713202 0.0056882558185 0.0056300005521 0.0055723285623 0.0055152170652 0.0054586842625 0.0054027052576 0.0053472753169 
0.0086400277137 0.0085720806507 0.0085037925045 0.0084352128176 0.0083664060272 0.0082973941337 0.0082282514527 0.0081589936214 0.0080895496765 
0.0080202069287 0.0079508643475 0.0078815439813 0.00781228341 0.007743053107 0.0076738576903 0.0076046963538 0.0075355922054 0.0074665251388 
0.0073975016529 0.0073285159274 0.0072595909855 0.0071907457033 0.0071220061975 0.0070534099836 0.0069849965244 0.0069168172276 0.0068489112753 
0.0067813324573 0.0067141189222 0.0066473001234 0.0065808867264 0.0065149057961 0.006449356982 0.0063842537246 0.0063195904958 0.0062553554533 
0.0061915637407 0.0061282214975 0.0060653417654 0.0060029527719 0.005941039796 0.0058796556189 0.0058188098921 0.0057585393149 0.0056988515371 
0.0056397523067 0.0055812418814 0.0055233235611 0.0054660020475 0.0054092387865 0.0087875792387 0.008717586744 0.0086473110473 0.0085767107504 
0.0085058671134 0.0084348478647 0.0083636786159 0.0082924212372 0.0082211075664 0.0081497679906 0.0080784282875 0.0080071164117 0.0079358426635 
0.0078646239805 0.0077933417041 0.0077222182867 0.007651137333 0.0075801131767 0.0075091482325 0.0074382329103 0.0073674000002 0.0072966645632 
0.0072260383999 0.0071555995325 0.0070853614368 0.007015379765 0.0069456982131 0.0068763637613 0.0068074283749 0.0067389004052 0.0066708105868 
0.0066031634193 0.0065359682442 0.0064692346099 0.0064029494175 0.0063371251028 0.0062717476405 0.0062068338736 0.006142391748 0.0060784605916 
0.0060150317815 0.0059521381983 0.0058897980766 0.0058280403302 0.0057668843387 0.0057063446474 0.005646427106 0.0055871013871 0.0055283918813 
0.0054702766394 0.0089372405993 0.008865176211 0.0087927733893 0.0087201181785 0.0086472234554 0.0085741104026 0.0085008673389 0.0084275350722 
0.008354145594 0.0082807418359 0.0082073472458 0.0081339737075 0.0080606473647 0.0079873782135 0.00791416136 0.0078409975354 0.007767906908 
0.007694859862 0.0076218684275 0.0075489713369 0.0074760583181 0.0074033748922 0.0073308327405 0.007258471337 0.0071863774464 0.0071145427186 
0.0070430383626 0.0069718996815 0.0069011723134 0.0068308885499 0.0067610698583 0.0066917102371 0.0066228238178 0.0065544094262 0.0064864599782 
0.0064189891279 0.0063519873479 0.0062854587249 0.0062194232093 0.00615391118 0.0060889201186 0.0060244884177 0.005960622735 0.0058973633733 
0.0058347189571 0.0057727128091 0.0057113418717 0.0056506021437 0.0055904951745 0.0055309882085 0.0090901254858 0.0090158914718 0.0089413476399 
0.0088665122988 0.0087914693469 0.0087162260882 0.0086408405738 0.0085653593935 0.0084898253115 0.0084142711628 0.0083387282975 0.0082632154455 
0.0081877604437 0.0081123574062 0.0080370093999 0.0079617273081 0.0078865124594 0.0078113866445 0.0077363386293 0.0076613826103 0.0075865468136 
0.0075118462512 0.0074373126136 0.0073629955474 0.0072889470927 0.0072151094839 0.0071417181825 0.0070687205673 0.0069961545239 0.0069240402615 
0.0068524201571 0.0067812947184 0.0067106512133 0.0066404980712 0.0065708340752 0.0065016614887 0.0064329807792 0.0063647939139 0.0062971176504 
0.0062299680714 0.0061633801464 0.0060973649716 0.0060319478346 0.0059671393272 0.0059029749162 0.0058394673267 0.0057766199287 0.0057144290775 
0.0056528843815 0.0055919704576 0.009247277582 0.0091708217347 0.009094038173 0.009016971762 0.0089396652603 0.0088621763059 0.0087845805002 
0.0087068738139 0.0086291019966 0.008551319616 0.0084735469551 0.008395801614 0.0083181147821 0.0082404905065 0.008162923504 0.0080854296153 
0.0080080252572 0.0079307134764 0.007853506591 0.0077764180428 0.0076994696475 0.007622685638 0.0075461028886 0.0074697544476 0.0073937021385 
0.0073179735462 0.0072426349017 0.0071677102359 0.0070932370322 0.0070192499063 0.0069456214769 0.0068726462894 0.0068001770144 0.0067282203235 
0.0066567783317 0.0065858401331 0.0065154163216 0.0064455092061 0.0063761381933 0.0063073145709 0.0062390711585 0.006171427065 0.006104398276 
0.0060380213543 0.0059722954474 0.0059072434631 0.0058428721123 0.0057791788733 0.0057161678999 0.0056538069024 0.0094097671526 0.0093309739963 
0.0092518684537 0.0091724754797 0.0090928470222 0.0090130385831 0.0089330755239 0.0088530307358 0.0087729303491 0.0086928251849 0.0086127276637 
0.0085326437572 0.0084526206239 0.0083726469502 0.0082927595866 0.0082129699028 0.0081332664369 0.0080536801309 0.0079742275579 0.0078949124322 
0.0078157580866 0.0077368165793 0.0076580946393 0.0075796370402 0.0075014902454 0.0074237075243 0.0073463365657 0.0072693951538 0.0071929302104 
0.0071169575116 0.0070415141257 0.006966609449 0.0068922188262 0.0068183769089 0.0067449587652 0.0066721839161 0.0065999485295 0.0065282616433 
0.0064571311786 0.0063865789487 0.0063166312773 0.0062473072434 0.0061786201221 0.0061106044194 0.0060432726613 0.0059766338809 0.0059106901519 
0.0058454494502 0.005780917038 0.0057170606828 0.0095786151414 0.0094973548117 0.009415802438 0.0093339706117 0.0092519013706 0.0091696497261 
0.0090872430822 0.0090047356492 0.0089221867739 0.008839612324 0.008757069392 0.0086745440337 0.0085920708357 0.0085096767843 0.0084273529007 
0.0083451362459 0.0082630497983 0.0081810794854 0.0080992650141 0.0080176253361 0.0079361779658 0.0078549554421 0.0077739986976 0.0076933416992 
0.0076130172721 0.0075330816686 0.0074535705295 0.0073745427804 0.007295996539 0.007217976564 0.0071404880885 0.0070635547714 0.0069871851973 
0.0069113497657 0.0068360965057 0.0067614186886 0.0066872938767 0.006613757942 0.0065406818723 0.0064683304565 0.0063966100348 0.0063255412497 
0.0062551484709 0.006185438046 0.006116431888 0.0060481490091 0.0059805965002 0.0059137490932 0.0058476342684 0.0057822382024 0.0097546086113 
0.0096708316649 0.0095867163447 0.0095022706255 0.0094176354926 0.009332813616 0.0092478462909 0.0091627750813 0.0090776396866 0.008992492329 
0.0089073440688 0.008822251307 0.0087372011115 0.0086522470955 0.008567383081 0.0084826401014 0.0083980284272 0.0083135660293 0.0082292818435 
0.0081452007968 0.0080613411516 0.0079777685311 0.0078944599953 0.00781149002 0.007728888037 0.0076466911507 0.007564951647 0.0074837077429 
0.0074030027672 0.007322824582 0.0072432097268 0.0071641711742 0.0070857196573 0.0070078487138 0.0069305457345 0.0068538231374 0.0067777327153 
0.0067022609405 0.0066274058983 0.0065531850641 0.0064796212693 0.00640674723 0.0063344576099 0.0062629878545 0.006192246179 0.0061222603517 
0.0060530197852 0.0059845306499 0.0059167782773 0.0058497779398 0.0099385369536 0.0098520565036 0.009765237357 0.0096781544533 0.0095907818379 
0.0095032409192 0.0094155625769 0.0093277789152 0.0092399404023 0.0091520719354 0.0090642333166 0.0089764026988 0.008888658647 0.0088010175515 
0.0087134683614 0.0086260525998 0.0085387979471 0.0084517245873 0.0083648566766 0.008278221578 0.008191838979 0.0081057676303 0.0080200303711 
0.0079346196358 0.007849627948 0.0077650732195 0.0076809929168 0.0075974393797 0.0075144181373 0.0074319914746 0.0073501331123 0.0072688736223 
0.0071882348159 0.0071082268301 0.0070288153725 0.0069500361554 0.006871839931 0.0067943290127 0.0067174875815 0.0066413210354 0.0065658393921 
0.006491073326 0.0064170458142 0.006343746486 0.0062712096725 0.0061993270232 0.0061283473637 0.0060581301663 0.0059886917075 0.00592001146 
0.010131084351 0.010041786461 0.0099521135667 0.0098621532632 0.0097719549868 0.0096815625819 0.0095909772481 0.0095003376275 0.0094096458795 
0.0093189101374 0.0092282143159 0.0091375683787 0.0090469571728 0.0089564711093 0.008866125833 0.0087759196191 0.0086858886269 0.0085960558383 
0.0085064747154 0.0084171540941 0.0083281416657 0.0082394387195 0.008151116131 0.0080631807074 0.0079756642837 0.0078886237955 0.0078020890678 
0.0077161104499 0.0076306936407 0.0075458831868 0.0074616775161 0.0073780906527 0.0072951614858 0.0072128791565 0.0071312437338 0.0070502794012 
0.0069699790003 0.0068903303283 0.006811401555 0.006733182502 0.0066556892149 0.0065789604043 0.0065029856582 0.0064277941572 0.0063533805688 
0.0062797669332 0.0062069565612 0.0061349569085 0.006063646591 0.0059932373591 0.010332855294 0.010240521117 0.010147846471 0.010054894732 
0.009961668435 0.009868256076 0.009774702049 0.009680992206 0.0095872623263 0.0094935216439 0.0093997900867 0.0093061334617 0.0092125636844 
0.009119087636 0.0090257721384 0.0089326330904 0.0088397003116 0.0087469918279 0.0086545554813 0.0085624096724 0.0084706053047 0.0083791684891 
0.0082881158576 0.0081975042964 0.0081073569669 0.0080176910851 0.0079285837378 0.0078400495677 0.0077521045471 0.0076647856539 0.0075781340144 
0.0074921254379 0.007406789374 0.0073221308778 0.0072381660504 0.0071549044285 0.007072356737 0.0069905247961 0.0069093895013 0.0068290388688 
0.006749466037 0.0066706625063 0.0065926676457 0.0065154900819 0.006439122592 0.0063635784993 0.0062888731142 0.0062150178311 0.0061419812984 
0.0060697733769 0.010544397895 0.010448863654 0.010352968095 0.010256787912 0.010160384741 0.010063815151 0.0099670604859 0.0098701906175 
0.0097732323303 0.0096763154474 0.0095793962859 0.0094825649739 0.0093858280378 0.0092892434867 0.0091928066131 0.0090965522624 0.0090005731249 
0.0089048559368 0.0088094193975 0.0087143186495 0.0086195932657 0.0085252394707 0.0084313485098 0.0083379167911 0.008244987423 0.0081525821776 
0.008060754999 0.0079695332307 0.0078789366483 0.0077889979823 0.0076997352901 0.0076111889235 0.0075233395555 0.0074362053115 0.0073498012654 
0.0072641398192 0.0071792246794 0.0070950835764 0.0070117255794 0.0069291540806 0.0068473347502 0.0067663751721 0.0066862759024 0.0066069995126 
0.0065285933316 0.006451042037 0.0063743640994 0.0062985576741 0.0062236278475 0.0061495546771 0.010765940194 0.010667027495 0.010567746228 
0.010468184709 0.010368388389 0.010268394606 0.010168298151 0.010068115659 0.0099678525892 0.0098675346636 0.0097672931866 0.0096670690375 
0.0095670184811 0.0094671211999 0.0093674334824 0.009267938393 0.0091688462084 0.0090699518838 0.0089713738065 0.0088731549053 0.0087753546676 
0.0086779706405 0.00858105669 0.0084846626332 0.0083888061625 0.0082935211732 0.0081988296382 0.0081047735003 0.0080113948752 0.0079187064978 
0.0078267315923 0.0077354835496 0.0076450080629 0.0075552776055 0.0074663264347 0.0073781508835 0.0072907734805 0.0072042028147 0.007118454447 
0.0070335445849 0.0069495006256 0.006866251627 0.0067839304642 0.0067024779883 0.0066219372444 0.0065422963944 0.0064635656448 0.0063857401335 
0.0063088222753 0.0062328213081 0.010998262031 0.01089576745 0.01079292924 0.010689775263 0.010586405538 0.010482853483 0.010379160525 
0.01027537616 0.010171582079 0.010067799473 0.0099639884488 0.0098602945814 0.009756742252 0.0096533752219 0.0095501905046 0.0094473063926 
0.0093446996594 0.0092424341597 0.0091405450105 0.009039070163 0.0089380228545 0.0088374490541 0.0087374931685 0.0086379667308 0.0085390341529 
0.0084406998683 0.008343004389 0.0082459920261 0.0081496931229 0.0080541116866 0.0079592899846 0.0078652339775 0.0077719778081 0.0076795213534 
0.0075878886332 0.0074970808299 0.0074071163641 0.0073180148612 0.0072297817503 0.0071424438077 0.0070559851408 0.0069704436444 0.0068857549967 
0.0068020595275 0.006719282344 0.0066374567492 0.0065565657414 0.0064766544544 0.0063976843756 0.0063196611018 0.011241654361 0.011135359091 
0.011028750834 0.010921829737 0.010814671582 0.010707330423 0.010599873412 0.010492348859 0.010384779033 0.010277229555 0.010169747096 
0.010062337984 0.009955103469 0.0098480668363 0.0097412864208 0.009634797295 0.009528665788 0.0094228242482 0.0093174420778 0.0092125210889 
0.0091080882974 0.0090041522065 0.0089007576603 0.0087979544745 0.0086957764176 0.008594251871 0.0084934998297 0.0083933719521 0.0082939714113 
0.0081953632267 0.0080975610987 0.0080005648492 0.0079043966281 0.0078091009189 0.0077146537156 0.007621092063 0.0075284260387 0.0074366667939 
0.0073458265419 0.0072559189754 0.0071669658396 0.0070789547881 0.006991909853 0.0069057977929 0.0068207111981 0.0067366043902 0.0066534955433 
0.0065713929829 0.0064902795701 0.0064101649522 0.011496682192 0.011386384356 0.011275711963 0.011164701452 0.011053560191 0.010942235613 
0.010830779401 0.010719268841 0.010607738195 0.010496241055 0.010384828617 0.010273543864 0.01016237296 0.010051535082 0.0099409335847 
0.009830665685 0.0097207689301 0.0096112953443 0.009502241777 0.0093936413353 0.0092856422995 0.0091781689261 0.0090712881638 0.0089650309635 
0.0088594366322 0.0087545332672 0.0086503723799 0.008546983937 0.008444376883 0.0083425592531 0.0082416973368 0.0081416114293 0.0080424204344 
0.0079441153145 0.0078467406962 0.0077502932852 0.0076547911847 0.0075602549578 0.0074667052408 0.0073741218872 0.0072825323554 0.0071919622229 
0.0071023991531 0.0070138599004 0.0069263011858 0.0068398385174 0.0067544301454 0.0066700302775 0.0065867036928 0.0065044018847 0.011763605139 
0.011649070439 0.011534147623 0.011419005274 0.011303600315 0.011187956069 0.011072300901 0.010956564678 0.010840852304 0.010725202261 
0.010609655579 0.010494266312 0.010379063375 0.010264086556 0.010149498794 0.010035250141 0.0099214186231 0.0098080338622 0.0096951563453 
0.0095827831011 0.0094710083648 0.0093598194872 0.0092491994314 0.0091393202594 0.0090301407705 0.0089217017228 0.0088140335734 0.0087072104008 
0.008601205041 0.0084960682495 0.0083918077451 0.0082884890854 0.0081861072592 0.0080847364182 0.0079843007463 0.0078848240725 0.0077863617074 
0.0076889150456 0.0075924966399 0.0074971200381 0.0074027900707 0.0073095286342 0.0072173444372 0.0071262363548 0.007036211519 0.0069472274867 
0.0068593968849 0.0067726601791 0.0066870079261 0.0066024785735 0.012042935812 0.011923904881 0.011804557318 0.011684949246 0.011565095392 
0.011445056261 0.011324942664 0.011204697858 0.011084558866 0.010964503853 0.010844549946 0.010724816085 0.0106053327 0.010486154528 
0.01036724398 0.010248805769 0.010130849645 0.01001337269 0.0098964279685 0.0097800747948 0.009664309273 0.0095492171961 0.0094348107184 
0.0093211059593 0.009208095562 0.0090959395146 0.0089846045475 0.0088741326078 0.008764581638 0.008655933509 0.0085482210601 0.0084414930064 
0.0083357641123 0.0082310585434 0.0081273797692 0.0080247655999 0.0079232496544 0.0078227611952 0.0077233591719 0.0076250568772 0.0075278671506 
0.0074318026501 0.0073368772772 0.0072430804064 0.0071504272385 0.0070589345194 0.0069685309655 0.0068793382789 0.0067913082457 0.0067044049196 
0.012335177528 0.01221144452 0.012087327965 0.011962986983 0.011838419303 0.011713703964 0.011588909527 0.01146402768 0.011339139478 
0.011214452923 0.011089932931 0.010965637373 0.010841613355 0.01071793006 0.01059466199 0.010471746516 0.010349371612 0.010227603132 
0.010106399236 0.0099858240058 0.0098659158284 0.0097466911333 0.0096282243229 0.0095105165285 0.0093936039882 0.0092775386936 0.009162280892 
0.0090480029056 0.0089347044175 0.0088223633889 0.008711034703 0.0086007252699 0.0084915007432 0.0083833362441 0.0082762721764 0.008170329462 
0.0080655245521 0.0079618620632 0.0078593875559 0.0077580381227 0.0076578607975 0.0075588683195 0.0074610734208 0.007364486183 0.0072691041675 
0.0071749296382 0.0070819821574 0.0069901855453 0.0068996665011 0.0068103565114 0.012640897428 0.012512182727 0.01238311386 0.012253726046 
0.012124190015 0.011994494446 0.011864731784 0.011734945326 0.011605183364 0.011475591574 0.011346118715 0.011217004745 0.011088208018 
0.010959790549 0.01083184299 0.010704395096 0.010577395299 0.010451067807 0.010325400958 0.010200391538 0.010076116453 0.0099525715311 
0.0098297769107 0.009707874185 0.0095867938737 0.0094666170064 0.0093473778922 0.0092291011159 0.0091117650862 0.0089955627632 0.0088804158517 
0.0087663784182 0.0086534477414 0.0085416970667 0.0084310922942 0.0083216690414 0.0082134815787 0.0081064699255 0.0080006988295 0.007896171383 
0.0077928814453 0.0076908718882 0.0075900957275 0.0074905822079 0.0073923607876 0.0072954120402 0.0071997536388 0.0071053673033 0.0070122091659 
0.006920386461 0.01296065835 0.012826680707 0.012692347216 0.01255772673 0.012422877682 0.012287920629 0.012152904601 0.012017913096 
0.011882989613 0.01174823454 0.011613686995 0.011479477514 0.0113455716 0.011212174959 0.011079288624 0.010946956592 0.010815228644 
0.010684074123 0.010553671397 0.010424021449 0.010295147097 0.010167075718 0.010039814211 0.0099134509242 0.0097880054049 0.0096635031071 
0.0095399763998 0.0094174979664 0.0092961017669 0.009175813253 0.0090565921593 0.0089386179304 0.0088218295173 0.0087062824217 0.0085919919024 
0.0084789184061 0.0083671569086 0.0082567032274 0.0081475124685 0.0080396481443 0.0079331155866 0.0078278946056 0.0077240186569 0.00762150077 
0.0075203134109 0.0074204855286 0.0073220121075 0.0072248836888 0.007129108846 0.0070346116761 0.013295083077 0.013155526289 0.013015641094 
0.012875460678 0.01273508708 0.012594532945 0.012453977032 0.012313433204 0.012173042808 0.012032837404 0.011892881505 0.011753280466 
0.011614141971 0.011475435926 0.011337351165 0.011199901003 0.011063109265 0.010927019561 0.010791584276 0.010657031148 0.010523304391 
0.010390460994 0.010258499011 0.010127448042 0.0099974010417 0.0098683704724 0.009740385383 0.0096134978977 0.0094877497869 0.0093631655921 
0.0092398057329 0.0091176832846 0.0089967901275 0.0088772628364 0.0087590750566 0.0086422473143 0.0085267303258 0.0084126209192 0.0082999113204 
0.0081885567544 0.0080786220634 0.0079700912513 0.0078629877817 0.0077572944083 0.0076530365475 0.0075502627448 0.0074488679332 0.0073488985744 
0.0072503445048 0.0071532023024 0.013644656534 0.013499237282 0.013353471721 0.013207436709 0.013061179273 0.012914817305 0.012768351099 
0.01262200425 0.012475806955 0.012329873976 0.012184252134 0.012039016186 0.011894255706 0.011750087649 0.011606547794 0.011463635838 
0.011321511481 0.011180162772 0.01103962 0.010899829062 0.010761012969 0.010623125255 0.010486208781 0.010350280791 0.010215370646 
0.010081585352 0.0099488726971 0.0098173221322 0.0096870026835 0.009557929458 0.0094301591266 0.009303717701 0.0091786649426 0.0090548969219 
0.0089326218963 0.0088118071933 0.0086924335622 0.0085745030568 0.0084580791634 0.0083431201195 0.008229632116 0.008117652825 0.0080071744307 
0.0078982102469 0.007790750809 0.0076848030336 0.0075803866409 0.0074774705378 0.0073760370834 0.0072760938862 0.014010138709 0.013858414896 
0.013706420244 0.013554205729 0.013401755295 0.013249195869 0.013096618806 0.012944073163 0.012791774653 0.012639780831 0.012488151942 
0.012336991107 0.012186392261 0.012036369496 0.01188705512 0.011738531423 0.011590757571 0.011443871741 0.011297863739 0.011152767166 
0.011008511934 0.01086533956 0.010723187059 0.010582120559 0.010442130177 0.01030328296 0.010165644948 0.010029214373 0.0098940889584 
0.0097602958127 0.0096278838225 0.0094969021179 0.0093673755473 0.0092393498066 0.0091128195179 0.0089877756475 0.0088643334704 0.0087424641575 
0.0086221167682 0.0085033909215 0.0083862402643 0.0082706442306 0.0081566571619 0.0080442712262 0.0079334997486 0.0078243212324 0.0077167494656 
0.0076107738075 0.0075063657045 0.0074035148399 0.014391881204 0.014233640155 0.014075045958 0.013916211509 0.013757270009 0.013598194822 
0.013439093612 0.013280126916 0.013121318808 0.012962914381 0.012804970556 0.01264755131 0.012490761915 0.012334662678 0.012179304834 
0.012024820557 0.011871213014 0.011718422489 0.011566672712 0.011415907595 0.011266129586 0.011117314181 0.010969688493 0.010823177671 
0.010677855729 0.010533706559 0.010390876067 0.010249321408 0.010109151588 0.0099704041123 0.0098331296283 0.0096973924203 0.0095632032529 
0.0094306059803 0.0092996259095 0.0091703000534 0.0090425287246 0.0089165034513 0.0087921772476 0.0086694640918 0.0085484840039 0.0084291437614 
0.0083115161078 0.0081955847631 0.0080813562501 0.0079688247135 0.0078579855594 0.0077488258664 0.0076413387883 0.0075354930071 0.014790551395 
0.014625337458 0.014459750848 0.014293981421 0.014128097181 0.013962166464 0.013796193366 0.013630384918 0.013464783788 0.013299647958 
0.013135021337 0.012971027799 0.012807720567 0.012645194382 0.012483530805 0.0123227418 0.012162939232 0.012004128699 0.011846293686 
0.011689523748 0.011533857747 0.011379224645 0.011225839725 0.011073633001 0.010922663553 0.010773006346 0.010624683674 0.010477770903 
0.010332301235 0.010188351116 0.010045981488 0.0099052401018 0.009766184928 0.009628824363 0.0094931950634 0.0093593088843 0.0092271901482 
0.0090968359037 0.0089681957965 0.0088414037506 0.0087164215492 0.0085932160806 0.0084717804156 0.0083521614324 0.0082343449457 0.0081183186334 
0.0080040972675 0.0078916533337 0.0077809627314 0.0076719988847 0.015206190246 0.015033730996 0.014860908078 0.01468784348 0.014514618986 
0.014341379959 0.014168249254 0.013995237329 0.013822461127 0.013650157462 0.013478518019 0.013307588248 0.013137432846 0.01296814781 
0.012799812922 0.012632475261 0.012466157073 0.012300936123 0.012136805343 0.011973802493 0.011811905421 0.011651220198 0.011491677662 
0.011333488311 0.011176624414 0.01102116724 0.010867109116 0.010714568927 0.010563549017 0.010414153011 0.010266452282 0.010120488895 
0.0099763267538 0.0098339797062 0.0096935045132 0.0095548617094 0.0094181247187 0.0092832743553 0.0091503127457 0.0090191692642 0.0088900049961 
0.008762718454 0.0086373725702 0.008513928334 0.0083923937365 0.0082727593025 0.0081550249 0.0080391701194 0.0079251466373 0.0078129595646 
0.015639062856 0.015458819808 0.015278382751 0.01509769644 0.014916855389 0.014735911627 0.014555133762 0.014374589257 0.014194375426 
0.014014701863 0.013835609051 0.013657378412 0.013480047228 0.013303558038 0.013128226658 0.012953982305 0.012780868911 0.012608890728 
0.012438120823 0.01226855247 0.012100216465 0.011933097205 0.011767295062 0.011602749723 0.011439683118 0.011278095632 0.011118040739 
0.010959600978 0.010802804492 0.010647720241 0.010494444318 0.010343024735 0.010193543986 0.010046002623 0.0099004516931 0.0097568717834 
0.0096153165724 0.0094757686833 0.0093382253071 0.0092027224965 0.0090692412094 0.0089376576214 0.0088082203418 0.0086807717971 0.0085553789218 
0.0084319989214 0.008310616898 0.0081912188325 0.0080737596238 0.007958218539 0.016089244713 0.015900881838 0.015712243646 0.015523504529 
0.015334576168 0.015145681851 0.014956884713 0.01476836727 0.014580298826 0.01439278377 0.014206025111 0.014020052225 0.013835144989 
0.01365130835 0.013468625463 0.013287137792 0.013106770416 0.012927758202 0.012749997259 0.012573546816 0.012398400053 0.012224596161 
0.012052149029 0.011881131842 0.011711531554 0.01154354066 0.011377215512 0.011212562832 0.011049715969 0.010888729173 0.010729648758 