# vtk DataFile Version 5.1
vtk output
ASCII
DATASET STRUCTURED_POINTS
DIMENSIONS 50 50 50
SPACING 0.002 0.002 0.002
ORIGIN 0.2174 -0.052672 0.02732
POINT_DATA 125000
FIELD FieldData 1
potential 1 125000 double
0.0026213108327 0.0025963030802 0.0025715679368 0.0025471194014 0.0025229414347 0.0024990305867 0.0024754051817 0.0024520616178 0.0024290026726 
0.0024062342728 0.0023837630923 0.002361589688 0.0023397089695 0.0023181203931 0.0022968147092 0.0022755378703 0.0022547597506 0.0022342255395 
0.0022139121622 0.0021938195305 0.0021739330249 0.0021542427132 0.0021347468183 0.0021154431759 0.0020963321166 0.0020774194307 0.0020587097783 
0.0020402083655 0.0020219211796 0.0020038561717 0.0019860153479 0.0019684028658 0.001951021985 0.0019338724784 0.0019169539347 0.0019002605564 
0.0018837920174 0.0018675454325 0.0018515209214 0.0018357134498 0.0018201287733 0.0018047634155 0.0017896147721 0.0017746843824 0.001759972189 
0.0017454690327 0.0017311722353 0.0017170691555 0.0017031536061 0.0016894185576 0.0026497494749 0.0026242788048 0.0025991025245 0.0025742046029 
0.0025495943324 0.0025252643039 0.0025012292394 0.0024774888068 0.0024540384799 0.0024308931011 0.0024080516142 0.0023855156935 0.0023632788006 
0.0023413448892 0.0023196947723 0.0022980768268 0.0022769679694 0.0022561064481 0.002235474821 0.0022150627498 0.0021948653305 0.0021748698258 
0.0021550726351 0.0021354738093 0.0021160729689 0.0020968772302 0.0020778889789 0.0020591153922 0.0020405632375 0.0020222372237 0.0020041434037 
0.0019862819698 0.001968656993 0.0019512664665 0.001934112792 0.001917187528 0.0019004895297 0.0018840149975 0.0018677660075 0.0018517387548 
0.0018359377165 0.0018203607093 0.0018050046306 0.0017898697359 0.0017749556132 0.001760256252 0.0017457667304 0.0017314744364 0.0017173761234 
0.0017034584049 0.0026772176605 0.0026512891719 0.0026256638486 0.0026003377521 0.0025753021851 0.0025505554021 0.002526118546 0.0025019879413 
0.0024781580005 0.0024546422922 0.0024314385221 0.002408545492 0.0023859641188 0.0023636832975 0.0023416985399 0.0023199937061 0.0022983077145 
0.002277123984 0.0022561746612 0.002235454052 0.0022149498062 0.0021946536919 0.0021745638514 0.0021546766488 0.0021349944884 0.0021155211152 
0.0020962637427 0.0020772266897 0.0020584166532 0.0020398409817 0.002021502396 0.0020034007733 0.0019855395157 0.0019679173881 0.0019505309516 
0.0019333814891 0.0019164598974 0.0018997670549 0.0018832982388 0.0018670563435 0.0018510398674 0.0018352543118 0.0018196921701 0.0018043531884 
0.001789238523 0.0017743426345 0.001759660175 0.0017451766503 0.0017308919905 0.0017167924044 0.0027034570123 0.0026770810811 0.002651016084 
0.0026252627016 0.0025998181134 0.0025746686655 0.0025498410718 0.002525328144 0.0025011282842 0.0024772502016 0.0024536940011 0.002430456592 
0.0024075363037 0.0023849204157 0.0023626073639 0.0023405796546 0.002318822953 0.0022970725693 0.0022758142979 0.0022547916466 0.002233987005 
0.0022133985275 0.0021930215478 0.0021728534367 0.0021528991407 0.0021331592978 0.0021136416909 0.0020943521914 0.0020752958496 0.0020564787001 
0.0020379027334 0.0020195725545 0.002001485249 0.0019836388795 0.0019660333672 0.0019486626816 0.0019315262393 0.0019146182886 0.0018979384832 
0.0018814855253 0.0018652621993 0.0018492707187 0.0018335053083 0.0018179644023 0.0018026502817 0.001787558766 0.0017726845553 0.001758016828 
0.001743545207 0.0017292636503 0.0027282659263 0.0027014544353 0.0026749668879 0.0026487979602 0.0026229498599 0.0025974199109 0.0025722055554 
0.0025473231205 0.0025227679014 0.0024985386942 0.0024746410517 0.002451068156 0.0024278199581 0.0024048823327 0.0023822491322 0.0023599088956 
0.002337842811 0.0023160399441 0.0022942259327 0.0022729082415 0.0022518152373 0.0022309442105 0.0022102891972 0.002189851199 0.0021696318749 
0.0021496355511 0.0021298695593 0.0021103379556 0.0020910456978 0.0020719989407 0.0020531988737 0.0020346480414 0.0020163435599 0.0019982857402 
0.0019804682009 0.0019628876476 0.0019455448613 0.0019284295887 0.0019115458874 0.0018948875872 0.0018784645394 0.0018622710243 0.0018463058909 
0.0018305714036 0.0018150623702 0.0017997788832 0.0017847137408 0.0017698619192 0.0017552071433 0.0017407474668 0.0027515155734 0.0027242835881 
0.0026973847297 0.002670815952 0.0026445781738 0.0026186716982 0.0025930875329 0.0025678554201 0.0025429535451 0.0025183890514 0.0024941605689 
0.0024702675357 0.0024467024873 0.0024234558135 0.0024005126554 0.002377869088 0.0023555076862 0.0023334099237 0.0023115621187 0.0022897002975 
0.0022683327123 0.0022471863264 0.0022262633228 0.0022055663256 0.002185094342 0.0021648509509 0.0021448460895 0.0021250835519 0.0021055668157 
0.0020863014362 0.0020672882594 0.0020485279558 0.0020300187855 0.0020117575423 0.0019937385323 0.001975959859 0.0019584166465 0.0019411062041 
0.0019240227441 0.0019071686292 0.0018905490055 0.0018741603062 0.0018580030149 0.0018420779162 0.0018263809642 0.0018109112071 0.001795662292 
0.0017806298931 0.0017657974017 0.0017511642108 0.0027731491177 0.0027455133334 0.0027182179778 0.0026912647321 0.0026646520215 0.0026383832498 
0.0026124457194 0.0025868653429 0.0025616422313 0.0025367547532 0.0025122111783 0.0024880091138 0.0024641385332 0.0024405927407 0.0024173579147 
0.0023944217265 0.0023717735487 0.0023493944549 0.0023272705417 0.0023053910512 0.0022834953587 0.002262085005 0.0022409073886 0.0022199605336 
0.0021992460226 0.0021787673702 0.002158534686 0.002138549396 0.0021188197746 0.0020993464493 0.0020801311354 0.0020611733343 0.002042467856 
0.0020240143495 0.0020058048018 0.0019878365049 0.0019701023113 0.0019526041721 0.0019353326509 0.001918290054 0.0019014813962 0.0018849042071 
0.001868560599 0.0018524490675 0.0018365721967 0.001820922065 0.0018054956276 0.0017902887398 0.0017752851937 0.0017604871199 0.0027932037651 
0.0027651746834 0.0027375002674 0.0027101779146 0.0026832060857 0.0026565886778 0.0026303114415 0.0026044057172 0.002578852049 0.0025536683711 
0.0025288222504 0.0025043215852 0.0024801609323 0.0024563275618 0.0024328125041 0.0024095946729 0.0023866700043 0.0023640215417 0.0023416297048 
0.0023194863528 0.0022975934697 0.0022756674415 0.002254245534 0.0022330599341 0.0022121144041 0.0021914122251 0.0021709612535 0.0021507655856 
0.0021308322643 0.002111159921 0.0020917529838 0.0020726048065 0.002053714045 0.0020350776677 0.002016686967 0.001998536494 0.0019806234163 
0.0019629425354 0.0019454910473 0.0019282692323 0.0019112789642 0.0018945241753 0.0018780017218 0.0018617125985 0.001845658266 0.0018298365585 
0.0018142389505 0.0017988633036 0.0017837003024 0.0017687351102 0.0028117826687 0.0027833822913 0.0027553422991 0.0027276663419 0.0027003515517 
0.002673394903 0.0026467985168 0.0026205754986 0.0025947150822 0.0025692173852 0.002544097762 0.0025193109144 0.0024948685814 0.002470759278 
0.0024469706788 0.0024234844073 0.0024002954067 0.0023773847032 0.0023547360411 0.002332341112 0.0023101984055 0.0022880320606 0.0022663720387 
0.0022449574254 0.0022237911005 0.0022028752765 0.0021822133085 0.0021618160831 0.0021416858616 0.0021218289957 0.0021022364726 0.0020829080677 
0.0020638409604 0.0020450285145 0.0020264661246 0.0020081417971 0.0019900536127 0.0019721983543 0.0019545767155 0.0019371824224 0.0019200191299 
0.0019030888297 0.0018863935803 0.0018699343959 0.00185371177 0.0018377238208 0.0018219612443 0.0018064241519 0.0017911021078 0.0017759829505 
0.0028290804166 0.0028003242824 0.0027719359212 0.0027439167478 0.0027162716277 0.0026889932628 0.00266208555 0.0026355586765 0.0026093960037 
0.0025836080387 0.0025581845808 0.0025331428677 0.002508429834 0.0024840539076 0.002459999432 0.002436252041 0.0024128048639 0.0023896396725 
0.0023667457247 0.0023441068907 0.0023217265922 0.0022995948469 0.0022774383138 0.00225580304 0.0022344216605 0.0022132986055 0.002192437545 
0.002171846802 0.0021515296024 0.0021314882527 0.0021117172171 0.0020922158823 0.0020729769535 0.0020539966963 0.0020352657242 0.0020167749118 
0.0019985211623 0.0019804998084 0.0019627082644 0.0019451505433 0.0019278191799 0.0019107238569 0.0018938623515 0.0018772395981 0.001860855002 
0.0018447048994 0.0018287866047 0.001813092568 0.0017976200499 0.0017823512185 0.0028453261104 0.0028162230279 0.002787502451 0.0027591579044 
0.0027311884929 0.0027036033231 0.0026763908898 0.0026495694449 0.002623124429 0.0025970555358 0.002571355848 0.0025460186313 0.0025210631739 
0.0024964236676 0.0024721082951 0.0024481090423 0.0024244078795 0.0024009958701 0.0023778600272 0.0023549838404 0.0023323728227 0.0023100157856 
0.0022879064146 0.0022657842959 0.0022441969886 0.0022228738665 0.0022018192474 0.0021810393482 0.0021605418513 0.0021403215423 0.0021203786799 
0.0021007073942 0.0020813020299 0.0020621570708 0.0020432611289 0.0020246093807 0.0020061937362 0.001988009096 0.0019700558937 0.0019523383887 
0.0019348479123 0.001917593166 0.0019005729387 0.0018837911961 0.0018672492124 0.0018509445583 0.0018348744292 0.0018190306552 0.0018034081374 
0.0017879945012 0.0028608117605 0.0028313753196 0.0028023236003 0.0027736622349 0.0027453865716 0.0027174954586 0.0026899936826 0.0026628764409 
0.0026361486337 0.002609803556 0.0025838329674 0.0025582277931 0.0025329813917 0.0025081129033 0.0024835444635 0.0024592919692 0.002435344826 
0.0024116898477 0.0023883114505 0.0023652041165 0.002342362454 0.0023197849448 0.0022974639956 0.0022754013901 0.0022533385765 0.0022318198135 
0.0022105755758 0.0021896131956 0.0021689340407 0.0021485394451 0.0021284271203 0.0021085889527 0.0020890200993 0.0020697114132 0.0020506534872 
0.0020318420665 0.0020132672859 0.0019949247198 0.001976814584 0.001958939187 0.0019412931395 0.0019238843847 0.0019067098211 0.0018897761579 
0.0018730819711 0.0018566274838 0.0018404081849 0.001824418819 0.0018086530076 0.0017931016022 0.0028758451167 0.0028460757783 0.0028167026529 
0.0027877256348 0.0027591441325 0.0027309566427 0.0027031649677 0.0026757613647 0.0026487533868 0.0026221303901 0.0025958881777 0.0025700166564 
0.002544507739 0.0025193478228 0.0024945565254 0.0024700513202 0.0024458550432 0.0024219594589 0.0023983455385 0.0023750068529 0.0023519446383 
0.0023291473826 0.0023066163918 0.0022843510178 0.0022623604501 0.0022403693781 0.0022189385438 0.0021977937584 0.0021769364034 0.0021563675602 
0.0021360840911 0.0021160808498 0.0020963462567 0.0020768739105 0.0020576556677 0.0020386844916 0.002019952551 0.002001453079 0.0019831885509 
0.0019651558064 0.0019473578693 0.0019297969939 0.0019124739676 0.0018953895359 0.0018785477935 0.0018619464085 0.0018455829638 0.0018294504651 
0.0018135424069 0.0017978510472 0.0028907148601 0.0028606189894 0.0028309280724 0.0028016373014 0.0027727512611 0.0027442654167 0.0027161806455 
0.0026884945275 0.0026612039858 0.0026343047098 0.0026077898459 0.0025816487651 0.0025558751844 0.0025304512289 0.0025053651772 0.0024806434511 
0.0024561986951 0.0024320560663 0.0024082062536 0.0023846355363 0.002361348436 0.0023383354806 0.0023155946692 0.0022931258766 0.0022709383163 
0.0022490317229 0.0022271363355 0.0022058100077 0.0021847751809 0.0021640308436 0.0021435693736 0.0021233961444 0.002103494542 0.0020838571451 
0.0020644776417 0.0020453445742 0.002026453041 0.0020077972835 0.0019893778288 0.0019711916966 0.0019532417999 0.0019355313534 0.0019180592528 
0.0019008303368 0.0018838425651 0.0018670966836 0.0018505882762 0.0018343130438 0.0018182662854 0.0018024355407 0.0029057052381 0.0028752797077 
0.0028452683702 0.002815664796 0.0027864721885 0.0027576892226 0.0027293102201 0.0027013298649 0.0026737556632 0.0026465764614 0.0026197838524 
0.002593368867 0.0025673234792 0.0025416299699 0.0025162801958 0.0024912621352 0.0024666042835 0.0024422137951 0.0024181242296 0.0023943197397 
0.0023708052317 0.0023475745398 0.0023246230099 0.002301950866 0.0022795619964 0.002257463414 0.0022353747514 0.0022138638338 0.0021926477696 
0.0021717234006 0.0021510904122 0.0021307423412 0.0021106691957 0.0020908628742 0.0020713128164 0.0020520149945 0.0020329623502 0.0020141491657 
0.0019955740437 0.0019772349761 0.0019591345967 0.0019412755431 0.0019236556539 0.0019062798812 0.0018891472154 0.0018722575377 0.0018556054681 
0.0018391871958 0.0018229994812 0.0018070297479 0.002921070224 0.0028903110117 0.0028599699645 0.0028300499431 0.0028005452395 0.002771456245 
0.0027427762836 0.0027144987508 0.002686632152 0.0026591620816 0.0026320865601 0.0026053915923 0.002579065772 0.0025530985561 0.0025274790209 
0.0025021948893 0.0024772379504 0.0024526381226 0.0024283015549 0.0024042583872 0.0023805144665 0.0023570601032 0.0023338935276 0.0023110145028 
0.0022884239691 0.0022661281574 0.0022441264996 0.0022221431646 0.0022007402266 0.00217963419 0.0021588176584 0.0021382897195 0.002118039302 
0.0020980590155 0.002078338888 0.0020588749982 0.0020396569524 0.0020206847336 0.0020019462613 0.0019834524465 0.0019651984322 0.0019471885989 
0.0019294234106 0.0019119004706 0.0018946202764 0.0018775853934 0.0018607911126 0.0018442284532 0.0018278965988 0.0018117878554 0.0029370184076 
0.0029059175763 0.0028752408161 0.0028449906975 0.0028151645413 0.0027857599837 0.0027567710276 0.0027281910793 0.0027000217884 0.0026722544573 
0.0026448803916 0.0026178958458 0.0025912813276 0.0025650326521 0.0025391364076 0.0025135794139 0.0024883557057 0.0024634497086 0.0024389093991 
0.0024146232856 0.0023906399543 0.0023669606084 0.0023435722388 0.0023204797171 0.0022976816145 0.0022751826162 0.0022529820023 0.0022310847968 
0.0022092050802 0.0021879088161 0.0021669055461 0.0021461910189 0.0021257581881 0.0021055968322 0.0020856978635 0.0020660588257 0.0020466712277 
0.0020275331756 0.0020086390761 0.0019899884752 0.0019715795167 0.0019534183735 0.001935498487 0.001917826302 0.0019003981859 0.0018832156222 
0.0018662740328 0.0018495688958 0.0018330914743 0.0018168400311 0.0029537199129 0.0029222596894 0.0028912368903 0.0028606503352 0.0028304907208 
0.0028007577132 0.0027714466162 0.0027425500004 0.0027140700315 0.0026859934061 0.002658315491 0.0026310269724 0.0026041169771 0.0025775770841 
0.0025513922764 0.0025255536799 0.0025000543417 0.0024748804945 0.0024500315038 0.0024255460503 0.0024013198157 0.0023774038153 0.0023537926976 
0.0023304758258 0.0023074645214 0.002284754269 0.0022623466148 0.0022402474131 0.0022184498073 0.0021966691698 0.0021754694691 0.0021545604426 
0.002133936661 0.0021135909273 0.0020935096263 0.0020736921558 0.0020541285603 0.0020348178243 0.0020157582991 0.0019969456593 0.0019783782514 
0.0019600604922 0.0019419917758 0.0019241672562 0.0019065898421 0.0018892519161 0.0018721627674 0.0018553070514 0.0018386843551 0.0018222848002 
0.0029713071189 0.0029394770276 0.0029080921099 0.0028771481894 0.0028466412123 0.00281656748 0.0027869201387 0.0027576941568 0.0027288894988 
0.0027004907935 0.0026724981316 0.0026448981534 0.0026176787599 0.0025908345579 0.0025643556249 0.0025382266317 0.0025124423709 0.0024869917511 
0.0024618752771 0.0024370760404 0.0024126571828 0.0023884946574 0.0023646456036 0.0023411026401 0.0023178655923 0.0022949363274 0.002272314633 
0.0022500049558 0.0022279981164 0.0022060057315 0.00218460308 0.0021634920102 0.0021426713785 0.0021221299869 0.0021018588933 0.0020818550669 
0.0020621114381 0.0020426258371 0.0020233939553 0.0020044127428 0.001985679523 0.0019672021424 0.0019489736921 0.001930995469 0.0019132632352 
0.0018957769263 0.0018785328118 0.0018615268993 0.0018447493986 0.0018282012503 0.0029899238642 0.0029576556163 0.002925891829 0.0028945781605 
0.0028637064565 0.0028332764439 0.0028032813442 0.0027737139795 0.0027445631225 0.0027158337664 0.002687508361 0.0026595842153 0.0026320468479 
0.0026048883991 0.0025781005836 0.0025516711582 0.0025255942412 0.0024998609109 0.0024744662777 0.0024494018297 0.0024246609862 0.0024003044681 
0.0023762057649 0.0023524254583 0.0023289562025 0.0023057954109 0.0022829521984 0.0022604202293 0.0022381946864 0.002216274483 0.0021943693264 
0.0021730511132 0.0021520233895 0.0021312787927 0.002110810443 0.0020906139049 0.0020706829888 0.0020510133509 0.0020316031321 0.0020124498195 
0.001993548972 0.0019749035546 0.0019565122677 0.0019383732239 0.0019204818739 0.0019028367401 0.0018854357733 0.0018682755864 0.0018513479464 
0.0018346476357 0.0030095428226 0.0029768648944 0.0029447011898 0.0029129960067 0.0028817448153 0.0028509432558 0.0028205795802 0.0027906551402 
0.0027611507892 0.0027320752126 0.0027034042811 0.0026751419874 0.0026472732501 0.0026197908665 0.0025926840017 0.0025659412654 0.0025395635112 
0.0025135363759 0.0024878541735 0.0024625115842 0.0024375005416 0.0024128791295 0.0023885253463 0.0023644941265 0.0023407811852 0.0023173836117 
0.0022943039957 0.0022715400618 0.0022490859428 0.0022269421416 0.0022051026745 0.0021832744166 0.0021620336738 0.0021410794853 0.0021204062169 
0.0021000095976 0.0020798826398 0.0020600243285 0.0020404304365 0.0020210974381 0.0020020196476 0.0019832019022 0.0019646426426 0.0019463344589 
0.001928279725 0.001910471573 0.0018929097856 0.001875588756 0.0018585044905 0.0018416488821 0.0030302546156 0.0029971992532 0.002964558576 
0.0029324460351 0.0029007959878 0.002869600871 0.0028388573374 0.0028085583026 0.0027786863283 0.0027492468848 0.0027202255022 0.002691606577 
0.0026633945645 0.0026355746661 0.0026081391779 0.0025810753765 0.0025543827512 0.0025280531395 0.0025020733783 0.0024764402069 0.0024511467271 
0.0024261901443 0.0024016309084 0.0023773384108 0.0023533706425 0.0023297254552 0.0023063983366 0.0022833902216 0.0022607000695 0.0022383218531 
0.0022162525104 0.0021944857439 0.0021727284441 0.0021515564331 0.0021306721314 0.0021100662386 0.0020897382091 0.0020696820088 0.0020498953874 
0.002030374459 0.0020111193131 0.0019921229361 0.0019733868528 0.0019549054064 0.0019366789555 0.0019187039277 0.0019009759636 0.0018834908579 
0.0018662439584 0.0018492323371 0.0030520717072 0.0030185651643 0.0029855567043 0.002952954172 0.0029208881501 0.002889287315 0.0028581433807 
0.0028274488582 0.0027971959852 0.0027673777968 0.0027379859268 0.0027090046948 0.0026804352594 0.0026522659558 0.0026244905985 0.0025970955486 
0.0025700760741 0.0025434266812 0.0025171386488 0.0024912064369 0.0024656182812 0.0024403766304 0.0024154745134 0.0023909754195 0.0023667415863 
0.0023428326943 0.0023192497325 0.0022959910631 0.0022730539835 0.0022504308517 0.0022281216492 0.0022061200722 0.0021841255205 0.0021627266734 
0.0021416213182 0.0021207996215 0.0021002607995 0.0020800015919 0.0020600164564 0.0020403029275 0.0020208555757 0.0020016749573 0.0019827550398 
0.0019640981965 0.0019456961595 0.0019275469744 0.0019096464005 0.0018919954392 0.0018745840488 0.0018574096779 0.0030750188223 0.0030410453815 
0.0030075842554 0.0029746026327 0.0029420355612 0.0029100081454 0.0028784490916 0.0028473491812 0.0028166912034 0.0027864797307 0.0027567031518 
0.0027273479171 0.0026984070605 0.0026698755617 0.0026417455124 0.0026140059408 0.0025866522959 0.0025596743769 0.0025330646957 0.0025068209457 
0.0024809298887 0.0024553909937 0.0024301962926 0.0024053438218 0.0023809006197 0.0023567202322 0.002332870849 0.0023093502542 0.002286152205 
0.0022632755998 0.0022407186082 0.002218471758 0.0021965312048 0.0021746010972 0.0021532632808 0.0021322179365 0.0021114620664 0.0020909897989 
0.0020707981314 0.0020508824656 0.00203123894 0.0020118647941 0.0019927565225 0.0019739145472 0.0019553313606 0.0019370047723 0.0019189306031 
0.001901107 0.0018835267452 0.0018661867675 0.0030991089665 0.0030646506902 0.0030307114033 0.0029972661332 0.0029643138456 0.0029317767418 
0.0028997810659 0.0028682542096 0.0028371803404 0.0028065597831 0.002776383341 0.0027466367167 0.002717311906 0.0026884095271 0.0026599138527 
0.0026318162761 0.0026041136753 0.0025767969069 0.0025498547285 0.0025232868418 0.0024970826111 0.0024712356916 0.0024457389333 0.002420590328 
0.0023957847832 0.0023713923896 0.0023472622377 0.0023234695058 0.0023000044049 0.0022768601878 0.0022540441149 0.0022315432908 0.0022093558507 
0.0021874740811 0.0021656013206 0.0021443241245 0.0021233412018 0.0021026496148 0.0020822458229 0.0020621195072 0.0020422698755 0.002022697907 
0.0020033962588 0.0019843629932 0.0019655923919 0.0019470831847 0.0019288325393 0.0019108293292 0.0018930779814 0.001875567511 0.0031243509803 
0.0030893862366 0.0030549472772 0.0030210280441 0.0029876026243 0.0029546003125 0.002922155355 0.0028901812308 0.0028586750158 0.0028276342465 
0.0027970437298 0.0027668943063 0.0027371721481 0.0027078808621 0.0026790079118 0.0026505408918 0.0026224787131 0.0025948091045 0.0025675253786 
0.0025406191161 0.0025140849539 0.002487916077 0.0024621056715 0.002436650438 0.002411542346 0.0023867795932 0.0023624348782 0.0023383577294 
0.0023146111911 0.0022911959219 0.0022681066535 0.0022453409405 0.0022228947854 0.0022007611083 0.0021786391656 0.0021571219144 0.0021359057386 
0.0021149851831 0.0020943555587 0.0020740132727 0.0020539515764 0.0020341729284 0.0020146705004 0.0019954409176 0.0019764791179 0.0019577818103 
0.0019393463771 0.0019211652639 0.0019032357964 0.0018855558404 0.0031507460064 0.0031152571617 0.0030803090514 0.003045889041 0.0030119727507 
0.0029785627155 0.0029455772328 0.0029131441869 0.0028811881414 0.0028497051461 0.0028186829841 0.0027881123331 0.0027579850697 0.0027282929624 
0.0026990247014 0.0026701758288 0.0026417407828 0.0026137087868 0.0025860686857 0.0025588165567 0.0025319377531 0.0025054378351 0.0024793035582 
0.0024535268585 0.0024281057382 0.0024030359655 0.0023783931397 0.0023540136839 0.002329979781 0.0023062793477 0.0022829090258 0.0022598688972 
0.0022371544242 0.0022147605896 0.0021926800841 0.0021706129707 0.0021491546383 0.0021279977491 0.0021071372273 0.0020865700054 0.0020662904743 
0.0020462984602 0.0020265888131 0.0020071545148 0.0019879936815 0.0019691042449 0.0019504775989 0.0019321120383 0.0019140045957 0.0018961452226 
0.0031783064177 0.0031422839998 0.003106790805 0.0030718493949 0.0030374264962 0.0030035199666 0.0029701212791 0.0029371393913 0.0029047153902 
0.0028727776242 0.0028413123536 0.0028103093234 0.0027797563461 0.0027496493949 0.0027199804982 0.0026907355775 0.0026619124517 0.0026335037623 
0.0026054971546 0.0025778859548 0.0025506546938 0.0025238079723 0.002497336546 0.0024712286461 0.0024454811377 0.002420092456 0.0023950553984 
0.002370450805 0.0023461149736 0.0023221175987 0.0022984590321 0.0022751334501 0.0022521411028 0.0022294746747 0.0022071286782 0.0021851006061 
0.0021630890988 0.0021416873807 0.0021205886253 0.0020997909829 0.00207928598 0.0020590731297 0.0020391477722 0.0020195049724 0.0020001415578 
0.001981050986 0.0019622334753 0.0019436796669 0.0019253878399 0.0019073518818 0.0032070405324 0.003170455934 0.0031344143983 0.0030989262976 
0.0030639841581 0.0030295626721 0.0029956575339 0.0029622569017 0.0029292771831 0.0028968669318 0.0028649385864 0.0028334865866 0.0028024961379 
0.0027719600633 0.0027418735259 0.0027122267458 0.0026830055421 0.0026542078451 0.0026258210742 0.0025978367587 0.0025702438181 0.002543039833 
0.0025162132674 0.0024897648056 0.0024636803207 0.0024379596154 0.0024125984752 0.0023875901575 0.0023630229285 0.0023387192301 0.0023147586791 
0.0022911406424 0.0022678565035 0.0022449102701 0.0022222906637 0.0021999945317 0.0021777200863 0.0021560642411 0.0021347201521 0.0021136832596 
0.0020929455599 0.0020725063657 0.0020523601733 0.0020325015669 0.0020129292747 0.0019936366306 0.0019746209003 0.0019558747541 0.0019373956541 
0.0019191785757 0.0032369626558 0.0031997971871 0.0031631873208 0.0031271450793 0.0030916543502 0.0030566988107 0.003022269658 0.0029883608779 
0.0029548815278 0.0029219836807 0.0028895795215 0.0028576615312 0.0028262161636 0.0027952391988 0.0027647219521 0.0027346553948 0.0027050283811 
0.0026758284816 0.0026470465095 0.0026186819837 0.0025907125459 0.0025631408781 0.0025359525265 0.0025091456588 0.0024827123734 0.0024566472188 
0.0024309472376 0.0024056068926 0.0023806282653 0.0023560923671 0.0023318202942 0.0023078947772 0.0022843129789 0.0022610742799 0.0022381727753 
0.0022155982817 0.0021933568198 0.0021711364538 0.0021495377494 0.002128252855 0.0021072763666 0.002086602924 0.0020662309508 0.0020461521109 
0.0020263656188 0.0020068653454 0.0019876474323 0.0019687056407 0.0019500369134 0.0019316329663 0.0032680906429 0.0032303216984 0.0031931276336 
0.0031565091154 0.0031204555584 0.0030849463586 0.0030499769261 0.0030155363477 0.0029816183943 0.002948138313 0.0029152333652 0.0028828340247 
0.0028509229592 0.002819491513 0.002788527969 0.0027580311301 0.0027279818015 0.002698370942 0.002669184347 0.0026404215895 0.0026120629793 
0.002584110309 0.0025565482642 0.0025293702299 0.0025025749588 0.0024761560472 0.0024501074809 0.00242442272 0.0023991061834 0.0023741470103 
0.0023496410584 0.00232539741 0.0023015103149 0.002277968027 0.0022547714914 0.0022319178532 0.002209393982 0.0021872051328 0.0021650404026 
0.0021435004332 0.0021222766149 0.0021013641764 0.0020807591013 0.0020604546932 0.0020404496982 0.0020207467597 0.0020013236814 0.0019821836626 
0.0019633199505 0.0019447269612 0.0033006878265 0.0032620347543 0.0032242317452 0.0031870209759 0.0031503795106 0.0031143082806 0.0030787755581 
0.003043789832 0.0030093355063 0.0029754139492 0.0029419314004 0.0029090389688 0.0028766454066 0.0028447430268 0.0028133245277 0.0027823794118 
0.0027518950626 0.0027218606317 0.0026922636797 0.0026630882906 0.002634328384 0.0026059810558 0.0025780324555 0.0025504744469 0.002523303582 
0.0024965188069 0.0024701043884 0.0024440602128 0.0024183931265 0.0023930919307 0.0023682517732 0.0023436809314 0.0023194723508 0.0022956182473 
0.0022721174141 0.0022489689476 0.0022261608089 0.0022036928204 0.0021812548047 0.0021594520092 0.0021379753817 0.0021168169269 0.0020959730578 
0.0020754388075 0.0020552092526 0.0020352795535 0.0020156467693 0.0019963030244 0.0019772404472 0.0019584570332 0.0033342526795 0.0032949559726 
0.003256522991 0.0032187016087 0.0031814606396 0.0031447989825 0.0031086919956 0.0030731416076 0.0030381373046 0.003003677996 0.0029697498216 
0.0029362649678 0.0029033782538 0.0028709908519 0.0028391012317 0.0028076997716 0.0027767686042 0.0027462970471 0.0027162725066 0.0026866823131 
0.0026575056013 0.0026287516616 0.0026004025895 0.0025724532057 0.0025448947235 0.0025177227011 0.0024909337114 0.0024645211575 0.0024384896309 
0.0024128328122 0.0023875490478 0.0023627353429 0.0023381941212 0.0023140190779 0.0022902040158 0.002266753499 0.0022436505038 0.0022208986953 
0.00219848583 0.0021761065463 0.0021543701375 0.0021329576682 0.0021118672975 0.0020910955156 0.0020706388245 0.0020504889473 0.0020306421896 
0.0020110914291 0.0019918295462 0.0019728507892 0.0033690325727 0.0033290736631 0.0032899922957 0.003251535641 0.0032136818477 0.0031764150978 
0.0031397116096 0.0031035798691 0.0030680047827 0.0030329883058 0.0029985219547 0.0029645112597 0.0029311135863 0.0028982309767 0.0028658594339 
0.0028339879964 0.0028026013266 0.0027716774638 0.0027412146008 0.0027111929633 0.0026815954218 0.0026524181896 0.0026236597203 0.002595302106 
0.0025673428362 0.0025397718336 0.0025125963066 0.0024858010414 0.0024593933451 0.002433366365 0.0024077223551 0.0023824621683 0.0023576777452 
0.0023331683603 0.0023090328371 0.0022852673084 0.0022618629573 0.002238814455 0.0022161198224 0.0021937639827 0.0021714531922 0.0021497826695 
0.0021284430749 0.0021074296532 0.0020867391816 0.0020663632434 0.002046298559 0.0020265371278 0.002007072506 0.0019878974589 0.0034050030374 
0.0033646194812 0.0033246204357 0.0032855103372 0.003247016471 0.0032091255464 0.0031718134972 0.0031350806993 0.0030989203505 0.0030633336518 
0.0030283103698 0.0029938441621 0.0029598370012 0.0029264465201 0.0028935825887 0.0028612282947 0.0028293686212 0.0027979892454 0.0027670739732 
0.0027366075716 0.0027065742756 0.0026769702672 0.0026477855189 0.0026190075392 0.0025906314401 0.0025626547634 0.0025350746088 0.0025078861266 
0.0024810880158 0.0024546803659 0.0024286657864 0.0024030408431 0.0023778052519 0.0023530574665 0.002328591082 0.0023045002301 0.002280781782 
0.0022574299185 0.0022344424767 0.0022118062447 0.0021892177225 0.0021672829341 0.0021456869539 0.0021244263726 0.0021034964733 0.0020828899765 
0.0020626036939 0.0020426299485 0.0020229573294 0.0020035801989 0.0034421155245 0.0034010357882 0.0033603495878 0.0033205710334 0.0032814181838 
0.0032428799858 0.003204949014 0.0031675998291 0.0031308428848 0.0030946679077 0.0030590752265 0.0030240554237 0.0029895952651 0.0029555979641 
0.0029222269375 0.0028893796912 0.0028570386604 0.0028251887932 0.0027938105624 0.0027628877278 0.0027324112808 0.0027023685337 0.0026727412103 
0.0026435310518 0.0026147294474 0.0025863337094 0.0025583364639 0.0025307446347 0.0025035437921 0.0024767441224 0.002450346683 0.0024243488185 
0.0023987502428 0.0023736531598 0.0023488462458 0.0023244226749 0.0023003856691 0.0022767243205 0.0022534322907 0.0022305077724 0.0022079420966 
0.0021854229572 0.0021635665483 0.0021420535539 0.002120880849 0.0021000408365 0.0020795296255 0.0020593368626 0.0020394515641 0.0020198687196 
0.0034802818697 0.0034384827714 0.0033971099926 0.0033566377699 0.0033168164099 0.0032776166128 0.0032390402646 0.0032010656103 0.0031636904264 
0.0031269191755 0.0030907461177 0.003055159352 0.0030201523596 0.0029857059729 0.0029517316788 0.0029183799358 0.0028855481098 0.0028532150141 
0.0028213660275 0.0027899779211 0.0027590462152 0.0027285478443 0.0026984759111 0.0026688205771 0.0026395800024 0.0026107498235 0.0025823274112 
0.0025543139906 0.0025267062655 0.0024995044751 0.0024727132174 0.002446331228 0.0024203635205 0.0023948037845 0.0023697528734 0.0023449908204 
0.0023206246697 0.0022966444036 0.0022730432128 0.0022498191374 0.0022269677867 0.002204479302 0.0021820465529 0.0021602723332 0.002138851946 
0.0021177710195 0.0020970276295 0.0020766120155 0.0020565108651 0.0020367164755 0.003519379931 0.0034768483324 0.0034347585658 0.0033935848042 