# vtk DataFile Version 5.1
vtk output
ASCII
DATASET POLYDATA
POINTS 4464 double
0.63499999046 -0.52113378048 1.0842021725e-16 0.68500000238 -0.52113378048 1.2143064332e-16 0.63499999046 -0.3793168962 1.0842021725e-16 
0.63499999046 -0.3793168962 1.0842021725e-16 0.68500000238 -0.52113378048 1.2143064332e-16 0.68500000238 -0.3793168962 1.2143064332e-16 
0.63499999046 -0.3793168962 1.0842021725e-16 0.68500000238 -0.3793168962 1.2143064332e-16 0.68500000238 -0.23749999702 1.2143064332e-16 
0.75999999046 -0.23749999702 1.4094627467e-16 0.75999999046 -0.13750000298 1.4094627467e-16 0.68500000238 -0.23749999702 1.2143064332e-16 
0.68500000238 -0.23749999702 1.2143064332e-16 0.75999999046 -0.13750000298 1.4094627467e-16 0.56000000238 -0.13750000298 8.8904585899e-17 
0.68500000238 -0.23749999702 1.2143064332e-16 0.56000000238 -0.13750000298 8.8904585899e-17 0.63499999046 -0.23749999702 1.0842021725e-16 
0.63499999046 -0.23749999702 1.0842021725e-16 0.56000000238 -0.13750000298 8.8904585899e-17 0.56000000238 -0.23749999702 8.8904585899e-17 
0.63499999046 -0.23749999702 1.0842021725e-16 0.63499999046 -0.3793168962 1.0842021725e-16 0.68500000238 -0.23749999702 1.2143064332e-16 
0.66421833689 -0.46218997352 1.1602307816e-16 0.63499999046 -0.4418168962 1.0842021725e-16 0.64539082321 -0.40878879968 1.1112399983e-16 
0.63499999046 -0.4105668962 1.0842021725e-16 0.65578165596 -0.43826070316 1.1382778241e-16 0.68500000238 -0.45863378048 1.2143064332e-16 
0.67460916964 -0.491661877 1.1872686074e-16 0.68500000238 -0.48988378048 1.2143064332e-16 0.68500000238 -0.3168168962 1.2143064332e-16 
0.66421833883 -0.29644380467 1.1602307866e-16 0.64960916465 -0.33788035043 1.1222164796e-16 0.68500000238 -0.26874999702 1.2143064332e-16 
0.67460917061 -0.26697190084 1.1872686099e-16 0.63619570066 -0.19845655797 1.0873135116e-16 0.5975 -0.18750000477 9.8662402504e-17 
0.60880430411 -0.17654344203 1.0160387806e-16 0.57875000119 -0.16250000387 9.3783494201e-17 0.58440215325 -0.15702172251 9.525423198e-17 
0.61624999523 -0.21250000089 1.0354130988e-16 0.59660322868 -0.16678258227 9.842905502e-17 0.5881250006 -0.17500000432 9.6222948353e-17 
0.61480954056 -0.19404909621 1.0316649139e-16 0.66059785152 -0.21797827749 1.1508099724e-16 0.65375000238 -0.23749999702 1.1329912896e-16 
0.66937500238 -0.23749999702 1.1736488614e-16 0.67279892695 -0.22773913726 1.1825582028e-16 0.63501124214 -0.21796031269 1.0842314503e-16 
0.64779999595 -0.22445093996 1.1175088696e-16 0.64839677609 -0.20821741773 1.119061742e-16 0.65578165402 -0.32037308855 1.138277819e-16 
0.63499999046 -0.3168168962 1.0842021725e-16 0.67460917061 -0.26697190084 1.1872686099e-16 0.72249999285 -0.18750000477 1.3118845806e-16 
0.59749999285 -0.18749999523 9.8662400643e-17 0.56000000238 -0.20000000298 8.8904585899e-17 0.61624999166 -0.21249999613 1.0354130895e-16 
0.5805729173 -0.19921875338 9.4257832394e-17 0.59749999642 -0.23749999702 9.8662401574e-17 0.56000000238 -0.16875000298 8.8904585899e-17 
0.57875000119 -0.16250000387 9.3783494201e-17 0.56000000238 -0.21875 8.8904585899e-17 0.5981592829 -0.20653677705 9.8833953491e-17 
0.56970793951 -0.18437500298 9.1430673262e-17 0.56937500179 -0.15000000343 9.134404005e-17 0.56000000238 -0.15312500298 8.8904585899e-17 
0.60304765343 -0.22212949195 1.0010594886e-16 0.5787499994 -0.23749999702 9.3783493736e-17 0.61624999344 -0.23749999702 1.0354130941e-16 
0.57164825547 -0.21041880154 9.1935559887e-17 0.58641262255 -0.21878201411 9.57773731e-17 0.62562499106 -0.22499999657 1.059807631e-16 
0.58812499702 -0.17499999955 9.6222947422e-17 0.63499999046 -0.13750000298 1.0842021725e-16 0.60880430411 -0.17654344203 1.0160387806e-16 
0.63006507335 -0.16789379894 1.0713611007e-16 0.59125000238 -0.13750000298 9.7036100254e-17 0.58440215325 -0.15702172251 9.525423198e-17 
0.61312499642 -0.13750000298 1.0272815875e-16 0.57220107782 -0.14726086274 9.2079408939e-17 0.57562500238 -0.13750000298 9.2970343076e-17 
0.59484975894 -0.14972463693 9.7972787361e-17 0.59660322868 -0.16678258227 9.842905502e-17 0.64690215325 -0.20702171953 1.1151726069e-16 
0.61322934882 -0.15850603333 1.0275531213e-16 0.62528788899 -0.14921894223 1.0589304629e-16 0.69749999046 -0.13750000298 1.2468324596e-16 
0.62785322868 -0.19178258078 1.0656056938e-16 0.66624999046 -0.13750000298 1.165517316e-16 0.65558153288 -0.18010037776 1.1377570869e-16 
0.64357398375 -0.15448965662 1.1065124283e-16 0.64500349022 -0.16943965609 1.1102321251e-16 0.64092623472 -0.18406365378 1.0996227614e-16 
0.66521450367 -0.15996375201 1.1628228918e-16 0.65062499046 -0.13750000298 1.1248597443e-16 0.65627242613 -0.14980176171 1.1395548496e-16 
0.62228312598 -0.17922006163 1.0511118153e-16 0.72249999285 -0.18750000477 1.3118845806e-16 0.68187499046 -0.14947599182 1.2061748878e-16 
0.69024428356 -0.18124816798 1.2279524964e-16 0.70302740423 -0.16089250198 1.2612152578e-16 0.68107119071 -0.16667611546 1.2040833329e-16 
0.67286858208 -0.18201290235 1.1827394513e-16 0.66244216021 -0.19717200553 1.1556090196e-16 0.64958271234 -0.19406718762 1.1221476484e-16 
0.66595107782 -0.22226085827 1.16473952e-16 0.65642661553 -0.2146412889 1.1399560635e-16 0.69501350773 -0.15043681983 1.2403624212e-16 
0.72874999046 -0.13750000298 1.3281476031e-16 0.71066691793 -0.14673807541 1.2810939187e-16 0.74124999166 -0.16250000387 1.3606736637e-16 
0.72212338881 -0.16206026778 1.3109046251e-16 0.73193377301 -0.15153311254 1.3364320746e-16 0.75062499106 -0.15000000343 1.3850682052e-16 
0.71175228055 -0.17493645536 1.283918124e-16 0.73187499225 -0.17500000432 1.3362791221e-16 0.694375 -0.22499999896 1.23870097e-16 
0.70374999762 -0.21250000089 1.2630955069e-16 0.67169947855 -0.20866708476 1.179697345e-16 0.68217891101 -0.19577400199 1.2069657148e-16 
0.71312499523 -0.20000000283 1.2874900438e-16 0.68804236101 -0.2104848974 1.2222229077e-16 0.69761803139 -0.19813540389 1.2471396121e-16 
0.70321290842 -0.18563894442 1.2616979554e-16 0.68500000238 0.52397298813 -1.4035299488e-19 0.63499999046 0.52397298813 -1.1958480322e-19 
0.68500000238 0.38823649287 1.2143064332e-16 0.68500000238 0.38823649287 1.2143064332e-16 0.63499999046 0.52397298813 -1.1958480322e-19 
0.63499999046 0.38823649287 1.2145141151e-16 0.68500000238 0.38823649287 1.2143064332e-16 0.63499999046 0.38823649287 1.2145141151e-16 
0.63499999046 0.25249999762 2.4302240782e-16 0.56000000238 0.25249999762 2.430535601e-16 0.56000000238 0.15250000358 3.3261752654e-16 
0.63499999046 0.25249999762 2.4302240782e-16 0.63499999046 0.25249999762 2.4302240782e-16 0.56000000238 0.15250000358 3.3261752654e-16 
0.75999999046 0.15250000358 3.325344538e-16 0.63499999046 0.25249999762 2.4302240782e-16 0.75999999046 0.15250000358 3.325344538e-16 
0.68500000238 0.25249999762 2.4300163963e-16 0.68500000238 0.25249999762 2.4300163963e-16 0.75999999046 0.15250000358 3.325344538e-16 
0.75999999046 0.25249999762 2.4297048736e-16 0.68500000238 0.25249999762 2.4300163963e-16 0.68500000238 0.38823649287 1.2143064332e-16 
0.63499999046 0.25249999762 2.4302240782e-16 0.65660346703 0.46532539823 5.2398552762e-17 0.68500000238 0.45073649287 6.5453160953e-17 
0.6741982641 0.41756028782 9.5171574536e-17 0.68500000238 0.41948649287 9.3441902136e-17 0.66339652582 0.44688408277 6.8912505753e-17 
0.63499999046 0.46147298813 5.5857897562e-17 0.64580172874 0.49464919318 2.6139483979e-17 0.63499999046 0.49272298813 2.786915638e-17 
0.65660346703 0.31114758751 1.9048632366e-16 0.63499999046 0.31499999762 1.8704492546e-16 0.68380429219 0.21345655856 2.7797099102e-16 
0.72249999285 0.20250000536 2.8776804245e-16 0.71119568874 0.19154344263 2.975858706e-16 0.68500000238 0.31499999762 1.8702415727e-16 
0.66339652582 0.32958890298 1.7396672748e-16 0.64919825814 0.2910444503 2.0849456765e-16 0.68500000238 0.35698649287 1.494193845e-16 
0.6741982641 0.35891269792 1.476986854e-16 0.5975 0.20250000536 2.8781996291e-16 0.60374999046 0.25249999762 2.4303538794e-16 
0.61624999166 0.22749999672 2.6542118964e-16 0.61937499046 0.24468749715 2.5002608359e-16 0.56000000238 0.2025000006 2.8783554332e-16 
0.60687499583 0.21500000104 2.7662057628e-16 0.60263392344 0.23631696314 2.5753001994e-16 0.58187499642 0.25249999762 2.4304447402e-16 
0.58490763628 0.22170989814 2.7062005038e-16 0.59769304799 0.22425359345 2.6833650523e-16 0.56000000238 0.22749999911 2.6544455171e-16 
0.5709374994 0.23999999836 2.5424451286e-16 0.5868244522 0.23744309114 2.5652798166e-16 0.57875000119 0.17750000447 3.1021874473e-16 
0.5706186382 0.21671043692 2.7510370154e-16 0.56000000238 0.18375000358 3.0462878536e-16 0.5881250006 0.19000000492 2.9901935382e-16 
0.56937500179 0.16500000402 3.2141813564e-16 0.56000000238 0.16812500358 3.1862315595e-16 0.57201029707 0.1885308905 3.0034184451e-16 
0.58148884422 0.20474274635 2.8581792546e-16 0.7225 0.20249999583 2.8776805099e-16 0.68500000238 0.15250000358 3.3256560608e-16 
0.71119568874 0.19154344263 2.975858706e-16 0.6899349195 0.18289379953 3.0534166546e-16 0.72874999046 0.15250000358 3.3254743392e-16 
0.7355978396 0.1720217231 3.150601622e-16 0.70687499642 0.15250000358 3.3255652e-16 0.74779891503 0.16226086334 3.23797308e-16 
0.74437499046 0.15250000358 3.3254094386e-16 0.72515023391 0.16472463753 3.2160006142e-16 0.72339676417 0.18178258287 3.063230164e-16 
0.6730978396 0.22202172012 2.7030413921e-16 0.70677064402 0.17350603393 3.1374272825e-16 0.69471210385 0.16421894283 3.2206562458e-16 
0.62250000238 0.15250000358 3.3259156631e-16 0.69214676417 0.20678258138 2.8394500491e-16 0.65375000238 0.15250000358 3.3257858619e-16 
0.66441845997 0.19510037835 2.9441956726e-16 0.6764260091 0.16948965721 3.1735255882e-16 0.67499650263 0.18443965668 3.0396333927e-16 
0.67907375813 0.19906365438 2.9086381256e-16 0.65478548918 0.1749637526 3.1245873025e-16 0.66937500238 0.15250000358 3.3257209614e-16 
0.66372756672 0.16480176231 3.2155649816e-16 0.69771686687 0.19422006223 2.951941824e-16 0.5975 0.20250000536 2.8781996291e-16 
[...]
CELL_DATA 4917
FIELD FieldData 4
electrode_index 1 4917 int
0 0 0 0 0 0 0 0 0 
0 0 0 0 0 0 0 0 0 
0 0 0 0 0 0 0 0 0 
0 0 0 0 0 0 0 0 0 
0 0 0 0 0 0 0 0 0 
0 0 0 0 0 0 0 0 0 
0 0 0 0 0 0 0 0 0 
0 0 0 0 0 0 0 0 0 
0 0 0 0 0 0 0 0 0 
0 0 0 0 0 0 0 0 0 
0 0 0 0 0 0 0 0 0 
0 0 0 0 0 0 0 0 0 
0 0 0 0 0 0 0 0 0 
0 0 0 0 0 0 0 0 0 
0 0 0 0 0 0 0 0 0 
0 0 0 0 0 0 0 0 0 
0 0 0 0 1 1 1 1 1 
1 1 1 1 1 1 1 1 1 
1 1 1 1 1 1 1 1 1 
1 1 1 1 1 1 1 1 1 
1 1 1 1 1 1 1 1 1 
1 1 1 1 1 1 1 1 1 
1 1 1 1 1 1 1 1 1 
1 1 1 1 1 1 1 1 1 
1 1 1 1 1 1 1 1 1 
1 1 1 1 1 1 1 1 1 
1 1 1 1 1 1 1 1 1 
1 1 1 1 1 1 1 1 1 
1 1 1 1 1 1 1 1 1 
1 1 1 1 1 1 1 1 1 
1 1 1 1 1 1 1 1 1 
1 1 1 1 1 2 2 2 2 
2 2 2 2 2 2 2 2 2 
2 2 2 2 2 2 2 2 2 
2 2 2 2 2 2 2 2 2 
2 2 2 2 2 2 2 2 2 
2 2 2 2 2 2 2 2 2 
2 2 2 2 2 2 2 2 2 
2 2 2 2 2 2 2 2 2 
2 2 2 2 2 2 2 2 2 
2 2 2 2 2 2 2 2 2 
2 2 2 2 2 2 2 2 2 
2 2 2 2 2 2 2 2 2 
2 2 2 2 2 2 2 2 2 
2 2 2 2 2 2 2 2 2 
2 2 2 2 2 2 2 2 2 
2 2 2 2 2 2 2 2 2 
2 2 2 2 2 2 2 2 2 
2 2 2 2 2 2 2 2 2 
2 2 2 2 2 2 2 2 2 
2 2 2 2 2 2 2 2 2 
2 2 2 2 2 2 2 2 2 
2 2 2 2 2 2 2 2 2 
2 2 2 2 2 2 2 2 2 
2 2 2 2 2 2 2 2 2 
2 2 2 2 2 2 2 2 2 
2 2 2 3 3 3 3 3 3 
3 3 3 3 3 3 3 3 3 
3 3 3 3 3 3 3 3 3 
3 3 3 3 3 3 3 3 3 
3 3 3 3 3 3 3 3 3 
3 3 3 3 3 3 3 3 3 
3 3 3 3 3 3 3 3 3 
3 3 3 3 3 3 3 3 3 
3 3 3 3 3 3 3 3 3 
3 3 3 3 3 3 3 3 3 
3 3 3 3 3 3 3 3 3 
3 3 3 3 3 3 3 3 3 
3 3 3 3 3 3 3 3 3 
3 3 3 3 3 3 3 3 3 
3 3 3 3 3 3 3 3 3 
3 3 4 4 4 4 4 4 4 
4 4 4 4 4 4 4 4 4 
4 4 4 4 4 4 4 4 4 
4 4 4 4 4 4 4 4 4 
4 4 4 4 4 4 4 4 4 
4 4 4 4 4 4 4 4 4 
4 4 4 4 4 4 4 4 4 
4 4 4 4 4 4 4 4 4 
4 4 4 4 4 4 4 4 4 
4 4 4 4 4 4 4 4 4 
4 4 4 4 4 4 4 4 4 
4 4 4 4 4 4 4 4 4 
4 4 4 4 4 4 4 4 4 
4 4 4 4 4 4 4 4 4 
4 4 4 4 4 4 4 4 4 
4 4 4 4 4 4 4 4 4 
4 4 4 4 4 4 4 4 4 
4 4 4 4 4 4 4 4 4 
4 4 4 4 4 4 4 4 4 
4 4 4 4 4 4 4 4 4 
4 4 4 4 4 4 4 4 4 
4 4 4 4 4 4 4 4 4 
4 4 4 4 4 4 4 4 4 
4 4 4 4 4 4 4 4 4 
4 4 4 4 4 4 4 4 4 
4 5 5 5 5 5 5 5 5 
5 5 5 5 5 5 5 5 5 
5 5 5 5 5 5 5 5 5 
5 5 5 5 5 5 5 5 5 
5 5 5 5 5 5 5 5 5 
5 5 5 5 5 5 5 5 5 
5 5 5 5 5 5 5 5 5 
5 5 5 5 5 5 5 5 5 
5 5 5 5 5 5 5 5 5 
5 5 5 5 5 5 5 5 5 
5 5 5 5 5 5 5 5 5 
5 5 5 5 5 5 5 5 5 
5 5 5 5 5 5 5 5 5 
5 5 5 5 5 5 5 5 5 
5 5 5 5 5 5 5 5 5 
5 5 5 5 5 5 5 5 5 
5 5 5 5 6 6 6 6 6 
6 6 6 6 6 6 6 6 6 
6 6 6 6 6 6 6 6 6 
6 6 6 6 6 6 6 6 6 
6 6 6 6 6 6 7 7 7 
7 7 7 7 7 7 7 7 7 
7 7 7 7 7 7 7 7 7 
7 7 7 7 7 7 7 7 7 
7 7 7 7 7 7 7 7 8 
8 8 8 8 8 8 8 8 8 
8 8 8 8 8 8 8 8 8 
8 8 8 8 8 8 8 8 8 
8 8 9 9 9 9 9 9 9 
9 9 9 9 9 9 9 9 9 
9 9 9 9 9 9 9 9 9 
9 9 9 9 9 9 9 9 9 
9 9 9 9 9 9 9 9 9 
9 9 9 9 9 9 9 9 9 
9 9 9 9 9 9 9 9 9 
9 9 9 9 9 9 9 9 9 
9 9 9 9 9 9 9 9 9 
9 9 9 9 9 9 9 9 9 
9 9 9 9 9 9 9 9 9 
9 9 9 9 9 9 9 9 9 
9 9 9 9 9 9 9 9 9 
9 9 9 9 9 9 9 9 9 
9 9 9 9 9 9 9 9 9 
9 9 9 9 9 9 9 9 9 
9 9 9 9 9 9 9 9 9 
9 9 9 9 9 9 9 9 9 
9 9 9 9 9 9 9 9 9 
9 9 9 9 9 9 9 9 9 
9 9 9 9 9 9 9 9 9 
9 9 9 9 9 9 9 9 9 
9 9 9 9 9 9 9 9 9 
9 9 9 9 9 9 9 9 9 
9 9 9 9 9 9 9 9 9 
9 9 9 9 9 9 9 9 9 
9 9 9 9 9 9 9 9 9 
9 9 9 9 9 9 9 9 9 
9 9 9 9 9 9 9 9 9 
9 9 9 9 9 9 9 9 9 
9 9 9 9 9 9 9 9 9 
9 9 9 9 9 9 9 9 9 
9 9 9 9 9 9 9 9 9 
9 9 9 9 9 9 9 9 9 
9 9 9 9 9 9 9 9 9 
9 9 9 9 9 9 9 9 9 
9 9 9 9 9 9 9 9 9 
9 9 9 9 9 9 9 9 9 
9 9 9 9 9 9 9 9 9 
9 9 9 9 9 9 9 9 9 
9 9 9 9 9 9 9 9 9 
9 9 9 9 9 9 9 9 9 
9 9 9 9 9 9 9 9 9 
9 9 9 9 9 9 9 9 9 
9 9 9 9 9 9 9 9 9 
9 9 9 9 9 9 9 9 9 
9 9 9 9 9 9 9 9 9 
9 9 9 9 9 9 9 9 9 
9 9 9 9 9 9 9 9 9 
9 9 9 9 9 9 9 9 9 
9 9 9 9 9 9 9 9 9 
9 9 9 9 9 9 9 9 9 
9 9 9 9 9 9 9 9 9 
9 9 9 9 9 9 9 9 9 
9 9 9 9 9 9 9 9 9 
9 9 9 10 10 10 10 10 10 
10 10 10 10 10 10 10 10 10 
10 10 10 10 10 10 10 10 10 
10 10 10 10 10 10 10 10 10 
10 10 10 10 10 10 10 10 10 
10 10 10 10 10 10 10 10 10 
10 10 10 10 10 10 10 10 10 
10 10 10 10 10 10 10 10 10 
10 10 10 10 10 10 10 10 10 
10 10 10 10 10 10 10 10 10 
10 10 10 10 10 10 10 10 10 
10 10 10 10 10 10 10 10 10 
10 10 10 10 10 10 10 10 10 
10 10 10 10 10 10 10 10 10 
10 10 10 10 10 10 10 10 10 
10 10 10 10 10 10 10 10 10 
10 10 10 10 10 10 10 10 10 
10 10 10 10 10 10 10 10 10 
10 10 10 10 10 10 10 10 10 
10 10 10 10 10 10 10 10 10 
10 10 10 10 10 10 10 10 10 
10 10 10 10 10 10 10 10 10 
10 10 10 10 10 10 10 10 10 
10 10 10 10 10 10 10 10 10 
10 10 10 10 10 10 10 10 10 
10 10 10 10 10 10 10 10 10 
10 10 10 10 10 10 10 10 10 
10 10 10 10 10 10 10 10 10 
10 10 10 10 10 10 10 10 10 
10 10 10 10 10 10 10 10 10 
10 10 10 10 10 10 10 10 10 
10 10 10 10 10 10 10 10 10 
10 10 10 10 10 10 10 10 10 
10 10 10 10 10 10 10 10 10 
10 10 10 10 10 10 10 10 10 
10 10 10 10 10 10 10 10 10 
10 10 10 10 10 10 10 10 10 
10 10 10 10 10 10 10 10 10 
10 10 10 10 10 10 10 10 10 
10 10 10 10 10 10 10 10 10 
10 10 10 10 10 10 10 10 10 
10 10 10 10 10 10 10 10 10 
10 10 10 10 10 10 10 10 10 
10 10 10 10 10 10 10 10 10 
10 10 10 10 10 10 10 10 10 
10 10 10 10 10 10 10 10 10 
10 10 10 10 10 10 10 10 10 
10 10 10 10 10 10 10 10 10 
10 10 10 10 10 10 10 10 10 
10 10 10 10 10 10 10 10 10 
10 10 10 10 10 10 10 10 10 
10 10 10 10 10 10 10 10 10 
10 10 10 10 10 10 10 10 10 
10 10 10 10 10 10 10 10 10 
10 10 10 10 10 10 10 10 10 
10 10 10 10 10 10 10 10 10 
10 10 10 10 10 10 10 10 10 
10 10 10 10 10 10 10 10 10 
10 10 10 10 10 10 10 10 10 
10 10 10 10 10 10 10 10 10 
10 10 10 10 10 10 10 10 10 
10 10 10 10 10 10 10 10 10 
10 10 10 10 10 10 10 10 10 
10 10 10 10 10 10 10 10 10 
10 10 10 10 10 10 10 10 10 
10 10 10 10 10 10 10 10 10 
10 10 10 10 10 10 10 10 10 
10 10 10 10 10 10 10 10 10 
10 10 10 10 10 10 10 10 10 
10 10 10 10 10 10 10 10 10 
10 10 10 10 10 10 10 10 10 
10 10 10 10 10 10 10 10 10 
10 10 10 10 10 10 10 10 10 
10 10 10 10 10 10 10 10 10 
10 10 10 10 10 10 10 10 10 
10 10 10 10 10 10 10 10 10 
10 10 10 10 10 10 10 10 10 
10 10 10 10 10 10 10 10 10 
10 10 10 10 10 10 10 10 10 
10 10 10 10 10 10 10 10 10 
10 10 10 10 10 10 10 10 10 
10 10 10 10 10 10 10 10 10 
10 10 10 10 10 10 10 10 10 
10 10 10 10 10 10 10 10 10 
10 10 10 10 10 10 10 10 10 
10 10 10 10 10 10 10 10 10 
10 10 10 10 10 10 10 10 10 
10 10 10 10 10 10 10 10 10 
10 10 10 10 10 10 10 10 10 
10 10 10 10 10 10 10 10 10 
10 10 10 10 10 10 10 10 10 
10 10 10 10 10 10 10 10 10 
10 10 10 10 10 10 10 10 10 
10 10 10 10 10 10 10 10 10 
10 10 10 10 10 10 10 10 10 
10 10 10 10 10 10 10 10 10 
10 10 10 10 10 10 10 10 10 
10 10 10 10 10 10 10 10 10 
10 10 10 10 10 10 10 10 10 
10 10 10 10 10 10 10 10 10 
10 10 10 10 10 10 10 10 10 
10 10 10 10 10 10 10 10 10 
10 10 10 10 10 10 10 10 10 
10 10 10 10 10 10 10 10 10 
10 10 10 10 10 10 10 10 10 
10 10 10 10 10 10 10 10 10 
10 10 10 10 10 10 10 10 10 
10 10 10 10 10 10 10 10 10 
10 10 10 10 10 10 10 10 10 
10 10 10 10 10 10 10 10 10 
10 10 10 10 10 10 10 10 10 
10 10 10 10 10 10 10 10 10 
10 10 10 10 10 10 10 10 10 
10 10 10 10 10 10 10 10 10 
10 10 10 10 10 10 10 10 10 
10 10 10 10 10 10 10 10 11 
11 11 11 11 11 11 11 11 11 
11 11 11 11 11 11 11 11 11 
11 11 11 11 11 11 11 11 11 
11 11 11 11 11 11 11 11 11 
11 12 12 12 12 12 12 12 12 
12 12 12 12 12 12 12 12 12 
12 12 12 12 12 12 12 12 12 
12 12 12 12 12 12 12 12 12 
12 12 12 12 12 12 12 12 12 
12 12 12 12 12 12 12 12 12 
12 12 12 12 12 12 12 12 12 
12 12 12 12 12 12 12 12 12 
12 12 12 12 12 12 12 12 12 
12 12 12 12 12 12 12 12 12 
12 12 12 12 12 12 12 12 12 
12 12 12 12 12 12 12 12 12 
12 12 12 12 12 12 12 12 12 
12 12 12 12 12 12 12 12 12 
12 12 12 12 12 12 12 12 12 
12 12 12 12 12 12 12 12 12 
12 12 12 12 12 12 12 12 12 
12 12 12 12 12 12 12 12 12 
12 12 12 12 12 12 12 12 12 
12 12 12 12 12 12 12 12 12 
12 12 12 12 12 12 12 12 12 
12 12 12 12 12 12 12 12 12 
12 12 12 12 12 12 12 12 12 
12 12 12 12 12 12 12 12 12 
12 12 12 12 12 12 12 12 12 
12 12 12 12 12 12 12 12 12 
12 12 12 12 12 12 12 12 12 
12 12 12 12 12 12 12 12 12 
12 12 12 12 12 12 12 12 12 
12 12 12 12 12 12 12 12 12 
12 12 12 12 12 12 12 12 12 
12 12 12 12 12 12 12 12 12 
12 12 12 12 12 12 12 12 12 
12 12 12 12 12 12 12 12 12 
12 12 12 12 12 12 12 12 12 
12 12 12 12 12 12 12 12 12 
12 12 12 12 12 12 12 12 12 
12 12 12 12 12 12 12 12 12 
12 12 12 12 12 12 12 12 12 
12 12 12 12 12 12 12 12 12 
12 12 12 12 12 12 12 12 12 
12 12 12 12 12 12 12 12 12 
12 12 12 12 12 12 12 12 12 
12 12 12 12 12 12 12 12 12 
12 12 12 12 12 12 12 12 12 
12 12 12 12 12 12 12 12 12 
12 12 12 12 12 12 12 12 12 
12 12 12 12 12 12 12 12 12 
12 12 12 12 12 12 12 12 12 
12 12 12 12 12 12 12 12 12 
12 12 12 12 12 12 12 12 12 
12 12 12 12 12 12 12 12 12 
12 12 12 12 12 12 12 12 12 
12 12 12 12 12 12 12 12 12 
12 12 12 12 12 12 12 12 12 
12 12 12 12 12 12 12 12 12 
12 12 12 12 12 12 12 12 12 
12 12 12 12 12 12 12 12 12 
12 12 12 12 12 12 12 12 12 
12 12 12 12 12 12 12 12 12 
12 12 12 12 12 12 12 12 12 
12 12 12 12 12 12 12 12 12 
12 12 12 12 12 12 12 12 12 
12 12 12 12 12 12 12 12 12 
12 12 12 12 12 12 12 12 12 
12 12 12 12 12 12 12 12 12 
12 12 12 12 12 12 12 12 12 
12 12 12 12 12 12 12 12 12 
12 12 12 12 12 12 12 12 12 
12 12 12 12 12 12 12 12 12 
12 12 12 12 12 12 12 12 12 
12 12 12 12 12 12 12 12 12 
12 12 12 12 12 12 12 12 12 
12 12 12 12 12 12 12 12 12 
12 12 12 12 12 12 12 12 12 
12 12 12 12 12 12 12 12 12 
12 12 12 12 12 12 12 12 12 
12 12 12 12 12 12 12 12 12 
12 12 12 12 12 12 12 12 12 
12 12 12 12 12 12 12 12 12 
12 12 12 12 12 12 12 12 12 
12 12 12 12 12 12 12 12 12 
12 12 12 12 12 12 12 12 12 
12 12 12 12 12 12 12 12 12 
12 12 12 12 12 12 12 12 12 
12 12 12 12 12 12 12 12 12 
12 12 12 12 12 12 12 12 12 
12 12 12 12 12 12 12 12 12 
12 12 12 12 12 12 12 12 12 
12 12 12 12 12 12 12 12 12 
12 12 12 12 12 12 12 12 12 
12 12 12 12 12 12 12 12 12 
12 12 12 12 12 12 12 12 12 
12 12 12 12 12 12 12 12 12 
12 12 12 12 12 12 12 12 12 
12 12 12 12 12 12 12 12 12 
12 12 12 12 12 12 12 12 12 
12 12 12 12 12 12 12 12 12 
12 12 12 12 12 12 12 12 12 
12 12 12 12 12 12 12 12 12 
12 12 12 12 12 12 12 12 12 
12 12 12 12 12 12 12 12 12 
12 12 12 12 12 12 12 12 12 
12 12 12 12 12 12 12 12 12 
12 12 12 12 12 12 12 12 12 
12 12 12 12 12 12 12 12 12 
12 12 12 12 12 12 12 12 12 
12 12 12 12 12 12 12 12 12 
12 12 12 12 12 12 12 12 12 
12 12 12 12 12 12 12 12 12 
12 12 12 12 12 12 12 12 12 
12 12 12 12 12 12 12 12 12 
12 12 12 12 12 12 12 12 12 
12 12 12 12 12 12 12 12 12 
12 12 12 12 12 12 12 12 12 
12 12 12 12 12 12 12 12 12 
12 12 12 12 12 12 12 12 12 
12 12 12 12 12 12 12 12 12 
12 12 12 12 12 12 12 12 12 
12 12 12 12 12 12 12 12 12 
12 12 12 12 12 12 12 12 12 
12 12 12 12 12 12 12 12 12 
12 12 12 12 12 12 12 12 12 
12 12 12 12 12 12 12 12 12 
12 12 12 12 12 12 12 12 12 
12 12 12 12 12 12 12 12 12 
12 12 12 12 12 12 12 12 12 
12 12 12 12 12 12 12 12 12 
12 12 12 12 12 12 12 12 12 
12 12 12 12 12 12 12 12 12 
12 12 12 12 12 12 12 12 12 
12 12 12 12 12 12 12 12 12 
12 12 12 12 12 12 12 12 12 
12 12 12 12 12 12 12 12 12 
12 12 12 12 12 12 12 12 12 
12 12 12 12 12 12 12 12 12 
12 12 12 12 12 12 12 12 12 
12 12 12 12 12 12 12 12 12 
12 12 12 12 12 12 12 12 12 
12 12 12 12 12 12 12 12 12 
12 12 12 12 12 12 12 12 12 
12 12 12 12 12 12 12 12 12 
12 12 12 12 12 12 12 12 13 
13 13 13 13 13 13 13 13 13 
13 13 13 13 13 13 13 13 13 
13 13 13 13 13 13 13 13 13 
13 13 13 13 13 13 13 13 13 
13 13 14 14 14 14 14 14 14 
14 14 14 14 14 14 14 14 14 
14 14 14 14 14 14 14 14 14 
14 14 14 14 14 14 14 14 14 
14 14 14 14 14 15 15 15 15 
15 15 15 15 15 15 15 15 15 
15 15 15 15 15 15 15 15 15 
15 15 15 15 15 15 15 15 15 
15 15 15 15 15 15 15 15 16 
16 16 16 16 16 16 16 16 16 
16 16 16 16 16 16 16 16 16 
16 16 16 16 16 16 16 16 16 
16 16 16 17 17 17 17 17 17 
17 17 17 17 17 17 17 17 17 
17 17 17 17 17 17 17 17 17 
17 17 17 17 17 17 17 17 17 
17 17 17 17 17 17 17 17 17 
17 17 17 17 17 17 17 17 17 
17 17 17 17 17 17 17 17 17 
17 17 17 17 17 17 17 17 17 
17 17 17 17 17 17 17 17 17 
17 17 17 17 17 17 17 17 17 
17 17 17 17 17 17 17 17 17 
17 17 17 17 17 17 17 17 17 
17 17 17 17 17 17 17 17 17 
17 17 17 17 17 17 17 17 17 
17 17 17 17 17 17 17 17 17 
17 17 17 18 18 18 18 18 18 
18 18 18 18 18 18 18 18 18 
18 18 18 18 18 18 18 18 18 
18 18 18 18 18 18 18 18 18 
18 18 18 18 18 18 18 18 18 
18 18 18 18 18 18 18 18 18 
18 18 18 18 18 18 18 18 18 
18 18 18 18 18 18 18 18 18 
18 18 18 18 18 18 18 18 18 
18 18 18 18 18 18 18 18 18 
18 18 18 18 18 18 18 18 18 
18 18 18 18 18 18 18 18 18 
18 18 18 18 18 18 18 18 18 
18 18 18 18 18 18 18 18 18 
18 18 18 18 18 18 18 18 18 
18 18 18 18 18 18 18 18 18 
18 18 18 18 18 18 18 18 18 
18 18 18 18 18 18 18 18 18 
18 18 18 18 18 18 18 18 18 
18 18 18 18 18 18 18 18 18 
18 18 18 18 18 18 18 18 18 
18 18 18 18 18 18 18 18 18 
18 18 18 18 18 18 18 18 18 
18 18 18 18 18 18 18 18 18 
18 18 18 18 18 18 18 18 18 
18 18 18 18 18 19 19 19 19 
19 19 19 19 19 19 19 19 19 
19 19 19 19 19 19 19 19 19 
19 19 19 19 19 19 19 19 19 
19 19 19 19 19 19 19 19 19 
19 19 19 19 19 19 19 19 19 
19 19 19 19 19 19 19 19 19 
19 19 19 19 19 19 19 19 19 
19 19 19 19 19 19 19 19 19 
19 19 19 19 19 19 19 19 19 
19 19 19 19 19 19 19 19 19 
19 19 19 19 19 19 19 19 19 
19 19 19 19 19 19 19 19 19 
19 19 19 19 19 19 19 19 19 
19 19 19 19 19 19 19 19 19 
19 19 19 19 19 19 19 19 20 
20 20 20 20 20 20 20 20 20 
20 20 20 20 20 20 20 20 20 
20 20 20 20 20 20 20 20 20 
20 20 20 21 21 21 21 21 21 
21 21 21 21 21 21 21 21 21 
21 21 21 21 21 21 21 21 21 
21 21 21 21 21 21 21 21 21 
21 21 21 21 21 21 21 21 21 
21 21 21 21 21 21 21 21 21 
21 21 21 21 21 21 21 21 21 
21 21 21 21 21 21 21 21 21 
21 21 21 21 21 21 21 21 21 
21 21 21 21 21 21 21 21 21 
21 21 21 21 21 21 21 21 21 
21 21 21 21 21 21 21 21 21 
21 21 21 21 21 21 21 21 21 
21 21 21 21 21 21 21 21 21 
21 21 21 21 21 21 21 21 21 
21 21 21 21 21 21 21 21 21 
21 21 21 21 21 21 21 21 21 
21 21 21 21 21 21 21 21 21 
21 21 21 21 21 21 21 21 21 
21 21 21 21 21 21 21 21 21 
21 21 21 21 21 21 21 21 21 
21 21 21 21 21 21 21 21 21 
21 21 21 21 21 21 21 21 21 
21 21 21 21 21 21 21 21 21 
21 21 21 21 21 21 21 21 21 
21 22 22 22 22 22 22 22 22 
22 22 22 22 22 22 22 22 22 
22 22 22 22 22 22 22 22 22 
22 22 22 22 22 22 22 22 22 
22 22 22 
area 1 4917 double
0.0011587541011 0.0011587541011 0.0010359138911 0.0018749994114 0.00011238111423 0.0001525134338 0.00015905187863 0.00073679777125 0.0014735955254 
0.00016235676169 0.0005883598024 0.00016235676169 0.0014735955254 0.00016235676169 0.0005883598024 0.00016235676169 0.00016235674651 0.0011059636793 
0.00057937719791 0.00049945506342 0.00016235674651 0.00010573999843 9.1508090825e-05 0.00015497150676 6.1005393883e-05 0.00012201078777 9.1508090825e-05 
0.0001318429942 0.00012201078777 0.00019412262629 0.00017395543651 0.00010275616542 0.00018332513989 7.6256716901e-05 7.6256716901e-05 0.00012233498768 
0.00018619113538 0.00012476405806 0.00012498062149 0.00064942698606 0.00010194575826 0.00058835989344 0.001874999769 0.0015708386741 0.00015456385226 
0.00015693373679 0.00016498155228 0.00012765287566 7.3242182843e-05 0.00017548106186 0.00017682166487 0.00017022869226 0.00015065577712 0.0001215107909 
0.00010920235528 0.00012000023325 0.00016072583997 0.00015168651763 7.3242182843e-05 0.00014648436569 0.00012646641981 0.00018730732843 0.00011718748556 
0.00011172262467 0.00014409846216 0.00017022165852 0.00013712974265 0.00017578119412 8.6179836871e-05 0.00018761870437 0.00012748359016 0.00014505919581 
0.00013477882802 0.0001525134338 7.6992943471e-05 0.00012713559551 0.00013370689744 7.6256716901e-05 7.6256716901e-05 9.5504952769e-05 0.00014906006335 
9.6107490098e-05 0.00013163401255 9.6654218298e-05 0.00019258293155 0.00013187046823 0.00012817586312 0.00013274167325 0.00015815551248 9.8797488535e-05 
0.00010663866154 0.00011055975577 0.00013273166903 0.00012442466312 0.00015785025332 0.00014380965649 9.9079878749e-05 0.00012311434396 0.00018169852841 
9.8271541496e-05 9.1343879663e-05 0.00010569759621 7.720945591e-05 0.00010361255242 0.00013906618681 0.00018712482569 0.00013795823484 0.00014912476019 
0.00013010730697 0.00012606483836 0.00013358849841 0.00018326306686 0.00018650036 9.0456390612e-05 0.00014099847542 0.00014230763358 0.00011543393999 
8.7455387843e-05 9.9115354449e-05 0.00011337821735 8.6636860644e-05 0.0001061106953 9.6654218298e-05 0.00010283134862 0.00013960693717 0.00014434488169 
0.00012899725254 0.00013546032062 0.00012160253487 0.00019531250698 0.00014158687594 0.00017856310949 0.00010963366846 0.00012165584295 0.00019048920481 
0.00012988144186 0.00010663866154 0.000119908639 0.00010761850876 0.00011487989056 0.00019761506401 0.00011115604846 0.00010565881431 8.8145519777e-05 
0.00011630547915 0.00012926797717 9.3313874604e-05 0.00010210717352 0.0010398313636 0.0010398313636 0.0019272230935 0.00010390959874 0.00011238111423 
0.00076195704633 0.0018749994114 0.00096361154677 0.00016877716064 0.0014661900969 0.00054983740869 0.00016877716064 0.0014661900969 0.00016877716064 
0.00054983740869 0.00016877716064 0.00067510864256 0.00079108145437 0.00097608620905 0.00048804315107 0.00027391404059 0.00016877716064 0.0011188045075 
0.00045352713309 0.00051991568178 0.00016877716064 0.00010076334924 0.00013078959388 0.00012207031978 0.00013078959388 0.00012207031978 9.8139777177e-05 
0.00011267574051 0.00016468486972 0.00010076334924 0.000125371872 9.8139777177e-05 0.0001367187046 0.00016355801747 0.00013881876233 0.00014648436569 
0.00012742680751 0.0001367187046 0.00012855102621 0.00011327653164 8.2352977587e-05 0.00012366209021 0.00016559518225 0.00013273293977 0.00011058257492 
0.00011259649479 7.3242182843e-05 7.3242182843e-05 0.00013966558773 9.383042724e-05 0.00014077545911 8.6179836871e-05 0.001874999769 0.00012748359016 
0.00014505919581 0.00013477882802 0.0001525134338 7.6992943471e-05 0.00012713559551 0.00013370689744 7.6256716901e-05 7.6256716901e-05 9.5504952769e-05 
0.00014906006335 9.6107490098e-05 0.00013163401255 9.6654218298e-05 0.00019258293155 0.00013187046823 0.00012817586312 0.00013274167325 0.00015815551248 
9.8797488535e-05 0.00010663866154 0.00011055975577 0.00013273166903 0.00012442466312 0.00015785025332 0.00014380965649 9.9079878749e-05 0.00012311434396 
0.00018169852841 9.8271541496e-05 9.1343879663e-05 0.00010569759621 7.720945591e-05 0.00010361255242 0.00013906618681 0.00018712482569 0.00013795823484 
0.00014912476019 0.00013010730697 0.00012606483836 0.00013358849841 0.00018326306686 0.00018650036 9.0456390612e-05 0.00014099847542 0.00014230763358 
0.00011543393999 8.7455387843e-05 9.9115354449e-05 0.00011337821735 8.6636860644e-05 0.0001061106953 9.6654218298e-05 0.00010283134862 0.00013960693717 
0.00014434488169 0.00012899725254 0.00013546032062 0.00012160253487 0.00019531250698 0.00014158687594 0.00017856310949 0.00010963366846 0.00012165584295 
0.00019048920481 0.00012988144186 0.00010663866154 0.000119908639 0.00010761850876 0.00011487989056 0.00019761506401 0.00011115604846 0.00010565881431 
8.8145519777e-05 0.00011630547915 0.00012926797717 9.3313874604e-05 0.00010210717352 0.0010398313636 0.0010398313636 0.00011443205112 0.00010390959874 
0.00011238098186 0.00015251341163 9.9415046811e-05 0.00011443205112 0.00016877716064 0.0014661900969 0.00054983740869 0.00016877716064 0.0014661900969 
0.00016877716064 0.00054983740869 0.00016877716064 0.00013060811877 0.0001477101505 0.00016877716064 0.00012564210719 0.00013060811877 0.00015267616747 
9.2439076906e-05 0.00012085535172 0.00010972723557 0.00010401699208 0.00013485497022 0.00012863994717 0.00013476935944 0.00014772783577 9.6188606488e-05 
0.00014479947027 0.000140155508 0.00012856865597 0.00010186838595 0.00014928350076 0.00011730304709 0.00018327376212 0.00011443205112 0.00015590108754 
0.00010574003251 0.00011815447182 6.1005376288e-05 0.0001549715138 0.00012201075258 0.00012201075258 9.1508064431e-05 0.00013184298579 9.1508064431e-05 
0.00019412274681 0.00017395551005 0.00010275622685 0.00018332503333 7.6256705815e-05 7.6256705815e-05 0.00012233499281 0.00018619109371 0.00012476409793 
0.00012498061735 0.0001477101505 0.00010194576253 0.00012564210719 0.00013060811877 0.00016877716064 0.00013060811877 0.00015267616747 9.2439076906e-05 
0.00012085535172 0.00010972723557 0.00010401699208 0.00013485497022 0.00012863994717 0.00013476935944 0.00014772783577 9.6188606488e-05 0.00014479947027 