# vtk DataFile Version 5.1
vtk output
ASCII
DATASET STRUCTURED_POINTS
DIMENSIONS 20 20 20
SPACING 0.005 0.005 0.005
ORIGIN 0.2189 -0.051172 0.02882
POINT_DATA 8000
FIELD FieldData 1
potential 1 8000 double
0.00038984592053 0.00038578931659 0.00038180774454 0.00037791448122 0.00037412137559 0.00037042721467 0.00036682094159 0.00036328781433 0.00035981850414 
0.00035641314338 0.00035307844736 0.00034982051157 0.00034664195485 0.00034354054393 0.00034051240054 0.00033755400058 0.00033465468139 0.00033181146039 
0.00032902215104 0.00032627965696 0.0003888062065 0.00038476953178 0.00038080366786 0.00037692448367 0.00037314485357 0.00036946612383 0.00036587871193 
0.00036236750548 0.00035892353175 0.00035554465701 0.00035223591068 0.00034900390099 0.00034585210821 0.00034277910281 0.00033977926782 0.00033684500893 
0.00033397111354 0.00033114647472 0.00032837068508 0.00032563999931 0.00038679761339 0.00038279710986 0.00037886265351 0.00037501138978 0.00037125777338 
0.00036760564948 0.00036404704454 0.00036056841889 0.00035715885467 0.00035381422087 0.00035053825418 0.00034733720877 0.00034421504826 0.00034117114537 
0.00033820134187 0.00033529491547 0.00033244336591 0.00032963555272 0.00032687157458 0.00032415152021 0.00038374193021 0.00037979447504 0.00037590990604 
0.00037210397368 0.00036839265208 0.00036478104784 0.00036126326017 0.00035782654917 0.00035445966996 0.00035115657062 0.00034791840787 0.00034475303409 
0.00034166472022 0.00033865273467 0.00033571240318 0.00033283273776 0.00033000341624 0.00032721386094 0.00032446429876 0.00032175758199 0.00037984771397 
0.00037596845605 0.0003721497437 0.00036840773346 0.00036475396159 0.000361195549 0.0003577283397 0.00035434114982 0.00035102116107 0.00034776358757 
0.00034456919027 0.00034144283408 0.00033839026448 0.00033541020679 0.00033249791853 0.00032964313715 0.00032683501119 0.00032406882906 0.00032133922915 
0.00031865271215 0.00037550856295 0.00037170924102 0.00036796886753 0.00036430179083 0.00036071753731 0.00035722028101 0.00035380955853 0.0003504747324 
0.00034720498743 0.00034399518548 0.0003408457055 0.00033776069285 0.00033474428239 0.0003317950349 0.0003289090548 0.0003260777031 0.00032329274252 
0.00032055060484 0.0003178464706 0.00031518651329 0.00037114219354 0.00036742458386 0.00036376587669 0.0003601781973 0.00035666707249 0.00035323695905 
0.00034988476237 0.00034660272169 0.0003433828073 0.00034022090066 0.00033711708497 0.00033407380365 0.0003310929539 0.00032817387131 0.00032531311293 
0.0003225043377 0.00031974326386 0.00031702703358 0.00031435157932 0.00031172061702 0.00036706016476 0.00036341861576 0.00035983925394 0.00035632831599 
0.00035288846693 0.00034952276695 0.00034622872674 0.00034299968041 0.0003398296472 0.00033671467118 0.00033365563182 0.0003306533864 0.00032770794976 
0.00032481886737 0.00032198342007 0.00031919891903 0.00031646201934 0.00031377205876 0.00031112519763 0.0003085240849 0.00036343497816 0.00035986243397 
0.00035635282459 0.00035291010355 0.00034953767437 0.00034623341705 0.00034299542272 0.00033981796617 0.00033669630246 0.00033362768505 0.00033061156623 
0.00032764881058 0.0003247382319 0.00032187981418 0.00031907154275 0.00031631252186 0.00031360081579 0.00031093477185 0.00030831656857 0.000305742149 
0.00036033408029 0.00035682144378 0.00035337342235 0.00034999208311 0.00034667863042 0.00034343141397 0.00034024661075 0.00033711891808 0.00033404422486 
0.00033102015361 0.00032804543965 0.00032512020363 0.00032224467155 0.00031941749538 0.00031663820972 0.00031390585252 0.00031121869812 0.00030857804746 
0.00030598409197 0.00030343337188 0.00035777396095 0.00035431374063 0.00035091951727 0.0003475906819 0.00034433019701 0.00034113386166 0.00033799848925 
0.00033491774858 0.00033188807218 0.00032890544547 0.0003259706227 0.00032308285443 0.0003202417011 0.00031744630056 0.00031469570108 0.00031199053457 
0.00030932904527 0.00030671233997 0.00030414118759 0.00030161176543 0.00035575640114 0.00035234016224 0.00034899086934 0.00034570809604 0.00034249412085 
0.00033934379466 0.00033625336321 0.00033321592739 0.00033022722035 0.00032728441942 0.00032438777099 0.00032153582004 0.00031872909185 0.00031596589503 
0.00031324544163 0.00031056700379 0.00030793075151 0.00030533640592 0.00030278604566 0.00030027601208 0.00035428374533 0.00035090328303 0.00034759030787 
0.00034434545575 0.00034117055672 0.00033806001885 0.00033500920156 0.00033201084841 0.00032906026504 0.00032615392851 0.00032329314164 0.00032047665248 
0.00031770445518 0.00031497402622 0.00031228367913 0.00030963271871 0.0003070201295 0.00030444720094 0.00030191486498 0.00029942376164 0.00035335220921 
0.00034999888202 0.00034671338162 0.0003434970514 0.0003403528734 0.00033727486962 0.00033425794834 0.00033129389931 0.00032837660463 0.00032550428503 
0.00032267714573 0.00031989547401 0.00031715834076 0.00031446216076 0.00031180398044 0.0003091800549 0.00030659178652 0.00030403889231 0.00030152321963 
0.00029904733688 0.0003529264423 0.00034959042418 0.00034632200526 0.00034312569069 0.00034000265874 0.00033695207664 0.00033396327732 0.00033102820066 
0.00032814036216 0.00032529844866 0.00032250339315 0.00031975628498 0.00031705539217 0.00031439562796 0.00031177051167 0.00030917631002 0.00030661087345 
0.00030407642767 0.00030157533984 0.0002991122636 0.00035289421114 0.00034956758845 0.00034630804208 0.00034312335685 0.00034001630334 0.00033698633918 
0.00033402085544 0.00033111077506 0.00032824930734 0.00032543526517 0.00032267101613 0.00031995819884 0.00031729338685 0.00031467073606 0.00031208084351 
0.00030951622919 0.00030697469118 0.00030445804417 0.00030196963204 0.00029951659273 0.00035302225668 0.00034970052673 0.00034644606886 0.00034326926703 
0.00034017504486 0.00033716258223 0.00033421824509 0.00033133169819 0.00032849654832 0.0003257102958 0.00032297647544 0.00032029596947 0.00031766619581 
0.00031507883833 0.00031252307964 0.00030998882722 0.00030747096092 0.00030497086456 0.00030249530149 0.00030005016294 0.00035295055094 0.00034963743305 
0.00034639040444 0.00034322351042 0.00034014339969 0.00033714936397 0.0003342273722 0.00033136725395 0.00032855983219 0.00032580366645 0.00032310061925 
0.00032045138226 0.00031785315854 0.00031529704809 0.00031277141223 0.00031026435018 0.0003077703796 0.00030528964647 0.00030282902725 0.00030039526023 
0.00035227307332 0.00034897728933 0.00034574709844 0.00034259761108 0.00033953732651 0.00033656542875 0.00033367095982 0.00033084179445 0.00032806793689 
0.00032534537054 0.00032267430386 0.00032005479542 0.00031748399893 0.00031495332455 0.00031245233053 0.0003099699153 0.00030750004121 0.0003050418622 
0.00030260095011 0.00030018384813 0.00035068083769 0.00034741585279 0.00034421494216 0.00034109444954 0.00033806327039 0.00033512203552 0.00033226078161 
0.00032946802501 0.00032673196459 0.0003240455507 0.00032140633036 0.00031881471926 0.00031626787112 0.00031375868642 0.0003112788616 0.00030881929622 
0.00030637466026 0.00030394305603 0.00030152761071 0.00029913312546 0.000443796601 0.00043933205251 0.00043494861375 0.00043065082909 0.0004264451921 
0.00042233172009 0.00041830555718 0.00041435954308 0.00041048903241 0.00040669257247 0.000402971079 0.00039932704373 0.0003957610371 0.00039227153045 
0.00038885543263 0.00038551138138 0.00038222999428 0.00037900983114 0.00037584746696 0.00037273815973 0.00044200964132 0.00043757575178 0.00043322087043 
0.00042895040358 0.00042477163517 0.00042068549601 0.00041668793356 0.00041277170153 0.00040893201701 0.00040516643356 0.00040147597888 0.0003978625725 
0.00039432727892 0.00039086861757 0.00038748173602 0.00038416456719 0.00038091240908 0.00037771654786 0.00037457589575 0.00037148781087 0.0004396279764 
0.00043523481296 0.00043091811595 0.00042668376321 0.00042253975568 0.0004184880554 0.00041452563283 0.00041064545936 0.00040684165029 0.00040311167915 
0.00039945621045 0.00039587682025 0.00039237382262 0.00038894647533 0.00038559142107 0.00038230310466 0.00037907712755 0.00037590469272 0.00037278534578 
0.00036971778145 0.00043660846737 0.00043226638932 0.00042799886742 0.00042381130616 0.00041971201062 0.00041570340572 0.00041178319094 0.00040794466273 
0.0004041823381 0.00040049316418 0.00039687565475 0.00039333266579 0.00038986501665 0.00038647055429 0.00038314692605 0.00037988761901 0.00037668751711 
0.00037353924442 0.00037044219103 0.00036739625417 0.00043305999517 0.0004287786091 0.00042456925165 0.00042043971192 0.00041639384841 0.00041243638944 
0.0004085648 0.0004047732007 0.00040105641278 0.00039741095991 0.0003938356854 0.00039033171357 0.00038690025347 0.0003835393223 0.00038024640736 
0.00037701561407 0.00037384238985 0.00037071993148 0.00036764745488 0.00036462599843 0.00042920036779 0.00042498654756 0.00042084316772 0.00041677778465 
0.00041279315031 0.00040889171661 0.00040507289606 0.00040133209038 0.00039766343944 0.00039406361364 0.00039053169673 0.00038706814134 0.00038367365818 
0.00038034623848 0.00037708410727 0.0003738816959 0.00037073423378 0.00036764014888 0.00036459418462 0.00036159974594 0.00042527719424 0.00042113249676 
0.00041705844686 0.00041306045288 0.00040913980928 0.00040529877817 0.00040153581415 0.00039784678182 0.00039422658806 0.00039067340176 0.0003871854456 
0.00038376237454 0.00038040479338 0.00037711138843 0.00037387942154 0.00037070554987 0.00036758552733 0.00036451931436 0.00036150182812 0.00035853532754 
0.00042150286066 0.00041742647103 0.00041342057799 0.00040948946915 0.00040563217137 0.00040185080941 0.00039814318253 0.000394506109 0.00039093520755 
0.00038742802648 0.00038398375666 0.00038060205033 0.00037728122595 0.0003740213678 0.00037081973304 0.00036767459299 0.00036458282488 0.00036154441809 
0.00035855565734 0.00035561791614 0.00041802309799 0.0004140105933 0.00041006840969 0.00040620020615 0.0004024039549 0.00039868028252 0.00039502681864 
0.00039144068738 0.00038791812891 0.00038445684104 0.00038105550272 0.0003777135438 0.0003744296505 0.00037120319331 0.00036803279336 0.00036491697982 
0.0003618533771 0.00035884097878 0.00035588164883 0.0003529708712 0.00041491926853 0.00041096502051 0.0004070817216 0.00040327039763 0.00039953144739 
0.00039586198623 0.00039226077067 0.00038872422749 0.00038524858353 0.00038183193408 0.00037847250042 0.00037516980844 0.00037192196179 0.00036872970212 
0.00036559033176 0.00036250384156 0.00035946892851 0.00035648371094 0.00035355061533 0.00035066537056 0.00041223090178 0.00040832934348 0.00040449954036 
0.00040074011575 0.00039705294228 0.00039343415219 0.00038988126662 0.00038639095842 0.00038296026134 0.00037958599088 0.00037626758661 0.00037300320894 
0.00036979202551 0.00036663298785 0.00036352579452 0.00036046928558 0.00035746188886 0.0003545036666 0.00035159601425 0.00034873439636 0.00040997178063 
0.00040611664989 0.00040233360776 0.00039862099503 0.00039498050365 0.00039140769835 0.00038790011591 0.00038445338216 0.00038106466987 0.00037773098733 
0.00037445214912 0.00037122516784 0.00036804999126 0.00036492540853 0.00036185020321 0.00035882279181 0.00035584334702 0.00035291048243 0.00035002662418 
0.00034718774017 0.00040813877371 0.00040432410424 0.00040058109606 0.00039690935546 0.00039331029868 0.00038977847086 0.00038631193126 0.0003829059425 
0.00037955706694 0.00037626177255 0.0003730202913 0.00036982987827 0.00036669072343 0.00036360047486 0.00036055703624 0.00035755945306 0.00035460684023 
0.00035169860226 0.00034883630181 0.00034601974089 0.00040670977559 0.00040292917361 0.00039922020714 0.00039558283985 0.00039201916533 0.00038852363142 
0.00038509372588 0.00038172433965 0.00037841234977 0.00037515367093 0.00037194816974 0.00036879386036 0.00036569031399 0.00036263464335 0.0003596237723 
0.0003566556777 0.00035373011724 0.00035084577539 0.00034800419547 0.00034520743204 0.00040562809563 0.00040187607432 0.00039819505139 0.00039458706602 
0.00039105144954 0.00038758895536 0.00038419178287 0.00038085629956 0.00037757770397 0.00037435338788 0.0003711826743 0.0003680642056 0.00036499645416 
0.0003619753528 0.00035899739215 0.0003560592571 0.0003531596833 0.00035029845434 0.000347477155 0.00034469817952 0.000404785899 0.00040105788063 
0.00039739984447 0.00039381568954 0.0003903062812 0.00038687219442 0.00038350470056 0.00038020000221 0.0003769532661 0.00037376143907 0.00037062491072 
0.0003675414348 0.00036450876942 0.0003615223821 0.00035857744368 0.0003556690397 0.00035279569828 0.00034995737973 0.00034715531826 0.00034439311822 
0.00040400774599 0.0004003016356 0.0003966651363 0.00039310318794 0.00038961784532 0.00038621017793 0.00038287129131 0.00037959684495 0.00037638117644 
0.00037322188697 0.00037011830229 0.00036706863734 0.00036407007333 0.00036111726274 0.00035820471864 0.0003553262814 0.0003524791624 0.0003496626247 
0.00034687974823 0.00034413300457 0.00040306571921 0.00039938338648 0.00039576964711 0.00039223130188 0.00038877146272 0.00038539081798 0.00038208132018 
0.00037883758758 0.00037565417635 0.00037252770736 0.00036945693643 0.00036644014916 0.00036347393977 0.00036055278279 0.00035767056588 0.00035482044753 
0.00035199943336 0.00034920645627 0.00034644392644 0.00034371427331 0.00040172603327 0.00039807271038 0.00039448694677 0.00039097616376 0.00038754536833 
0.0003841940613 0.00038091661943 0.00037770625335 0.00037455698933 0.00037146425734 0.00036842639672 0.00036544091674 0.00036250520812 0.00035961337142 
0.00035675907262 0.00035393637409 0.00035114160519 0.00034837353439 0.00034563393258 0.00034292486609 0.00039981862871 0.00039620203267 0.00039265192324 
0.00038917593194 0.00038577923696 0.00038246231931 0.00037921999491 0.00037604546235 0.00037293159484 0.00036987389613 0.00036686817628 0.00036391311563 
0.00036100565902 0.00035814089002 0.00035531294343 0.00035251696804 0.00034974918633 0.0003470080908 0.00034429386827 0.00034160875085 0.0004981034853 
0.00049321592192 0.00048841333475 0.00048369970424 0.00047907681364 0.00047454539495 0.00047010274457 0.00046574533142 0.00046147050419 0.00045727668435 
0.00045316276591 0.00044912928532 0.00044517532341 0.00044129965168 0.00043749964729 0.00043377450271 0.00043011630884 0.00042652454305 0.00042299511493 
0.00041952490063 0.00049576559124 0.00049091515299 0.00048615096906 0.00048147335215 0.00047688621356 0.00047239010254 0.00046798320366 0.00046366159566 
0.00045942241892 0.00045526376732 0.00045118517859 0.00044718591899 0.00044326616451 0.00043942420597 0.00043565562682 0.0004319621661 0.00042833462522 
0.00042477134977 0.00042126907218 0.00041782582968 0.00049305946128 0.00048825400068 0.0004835330411 0.00047889671692 0.00047435046223 0.00046989429799 
0.00046552703521 0.00046124485302 0.00045704490006 0.00045292423532 0.00044888298308 0.00044492071507 0.00044103573224 0.00043722785619 0.00043349304827 
0.00042982928284 0.0004262334036 0.00042269808617 0.00041922310084 0.00041580614581 0.00048995943965 0.00048520521987 0.00048053383547 0.00047594603861 
0.00047144646405 0.00046703584037 0.00046271280746 0.00045847385712 0.00045431602965 0.00045023714261 0.00044623531151 0.00044231118162 0.00043846338619 
0.00043468998551 0.00043098934716 0.00042735725539 0.000423791259 0.00042028481731 0.00041683673092 0.00041344661541 0.00048652522079 0.0004818287902 
0.00047721210533 0.00047268000583 0.00046823237164 0.00046387190592 0.00045959758735 0.00045540517698 0.00045129284184 0.00044725785606 0.00044329831972 
0.00043941406615 0.00043560406903 0.00043186631246 0.00042819921736 0.00042459879562 0.00042106348864 0.0004175857446 0.00041416618329 0.00041080399198 
0.00048288272683 0.00047824790051 0.00047369184548 0.00046921868474 0.00046482755551 0.00046052137752 0.00045629807711 0.0004521560877 0.00044809094849 
0.00044410129433 0.00044018518066 0.00043634181585 0.00043257016483 0.00042886847908 0.0004252351473 0.00042166680612 0.00041816005505 0.00041471376509 
0.00041132360805 0.00040799042296 0.0004791837927 0.00047461192413 0.00047011871921 0.00046570716653 0.00046137554308 0.00045712605468 0.00045295653493 
0.00044886518319 0.00044484840461 0.00044090491695 0.00043703272118 0.0004332307701 0.00042949717627 0.00042583205153 0.00042223233414 0.00041869625344 
0.00041522028795 0.00041180401754 0.00040844387087 0.00040514027362 0.00047557134118 0.00047106315163 0.00046663260297 0.00046228214138 0.00045800992196 
0.00045381692752 0.00044970107418 0.00044566101213 0.00044169306046 0.00043779564987 0.00043396748847 0.00043020701538 0.0004265124838 0.00042288335909 
0.00041931775189 0.00041581373648 0.00041236874795 0.00040898316474 0.00040565259483 0.00040237834126 0.00047215722123 0.0004677100062 0.0004633395918 
0.00045904848212 0.00045483411979 0.00045069632505 0.00044663391652 0.00044264415414 0.00043872483361 0.00043487316229 0.00043108835881 0.00042736888547 
0.00042371273218 0.00042011992876 0.00041658845582 0.00041311668084 0.00040970279257 0.00040634541076 0.0004030461432 0.00039980030639 0.00046901453794 
0.00046462446569 0.00046031126763 0.00045607538267 0.00045191653813 0.00044783219415 0.00044382096484 0.00043988038187 0.00043600798666 0.00043220163135 
0.00042846022242 0.0004247806755 0.00042116287299 0.00041760635867 0.00041410880355 0.00041066925077 0.00040728635466 0.0004039587583 0.00040068816042 
0.00039746982269 0.00046618537928 0.0004618486435 0.00045758924186 0.0004534048082 0.00044929817006 0.00044526411803 0.00044130136287 0.00043740791793 
0.00043358117818 0.00042981846216 0.00042611845032 0.00042247931392 0.00041889944435 0.00041537858201 0.00041191526079 0.00040850796472 0.00040515560053 
0.00040185734983 0.00039861448585 0.00039542265251 0.00046368689596 0.0004593990991 0.00045518816125 0.00045105239528 0.0004469932137 0.00044300598617 
0.00043908945979 0.00043524068616 0.00043145723613 0.00042773636789 0.00042407750527 0.00042047766341 0.00041693568352 0.00041345076163 0.00041002120715 
0.0004066458918 0.00040332366628 0.00040005354341 0.00039683767872 0.00039367159809 0.00046151433666 0.0004572707917 0.00045310410123 0.00044901193391 
0.00044499678836 0.00044105291793 0.00043717952867 0.00043337316723 0.00042963135454 0.00042595080035 0.00042233131614 0.00041876952377 0.00041526516979 
0.00041181587609 0.00040842037341 0.00040507685594 0.0004017843174 0.00039854208236 0.00039535081865 0.00039221000526 0.00045964117968 0.00045543797013 
0.00045131049111 0.00044725838139 0.00044328266016 0.00043937888639 0.00043554507959 0.00043177844369 0.00042807610117 0.00042443460539 0.00042085336399 
0.00041732876057 0.00041386114264 0.00041044812225 0.00040708617484 0.00040377427092 0.00040051154465 0.00039729628827 0.00039412948648 0.00039101251271 
0.00045801214555 0.00045384550723 0.00044975411368 0.00044573827258 0.00044179806665 0.00043793085823 0.00043413426505 0.00043040501151 0.00042673989481 
0.00042313597596 0.0004195916637 0.00041610490947 0.00041267337164 0.00040929522502 0.00040596715098 0.00040268701548 0.00039945305439 0.00039626467057 
0.00039312206385 0.00039002730636 0.00045653842861 0.0004524055793 0.00044834690009 0.00044436403051 0.00044045629114 0.00043662484974 0.0004328632191 
0.00042916943145 0.0004255402033 0.00042197240387 0.00041846443762 0.00041501410181 0.00041161885948 0.00040827546619 0.00040498098731 0.00040173156136 
0.00039852652246 0.00039536446504 0.00039224595142 0.00038917264854 0.00045509376614 0.00045099394698 0.00044696723926 0.00044301590241 0.00043914076195 
0.00043534258162 0.00043161527907 0.00042795690329 0.00042436267183 0.00042083031397 0.00041735787727 0.00041394302799 0.00041058259102 0.00040727359457 
0.00040401194285 0.00040079375993 0.00039761728785 0.00039448099492 0.00039138621313 0.00038833334336 0.00045353154275 0.00044946551446 0.00044547176817 
0.00044155322078 0.00043771131138 0.00043394688065 0.00043025424124 0.0004266303883 0.00042307165859 0.00041957455858 0.00041613739495 0.00041275715533 
0.00040943094061 0.00040615507391 0.00040292509358 0.00039973712506 0.00039658910861 0.00039347994092 0.00039040924709 0.00038737844692 0.0004517113258 
0.00044768237719 0.00044372455068 0.00043984093435 0.00043603425904 0.00043230478816 0.00042864765693 0.00042505999533 0.00042153744977 0.00041807605 
0.00041467324687 0.00041132678724 0.00040803347841 0.00040478936666 0.00040159026019 0.0003984321706 0.00039531272137 0.00039223077164 0.00038918586146 
0.00038617884065 0.00044953437958 0.00044554693291 0.00044162945118 0.00043778507991 0.00043401672105 0.00043032464518 0.00042670521363 0.00042315491539 
0.00041966874444 0.0004162432125 0.00041287440582 0.0004095609633 0.00040629921929 0.0004030854907 0.00039991614823 0.00039678777705 0.00039369737889 
0.00039064371001 0.00038762628867 0.00038464499255 0.00055260058964 0.00054728019675 0.00054205125972 0.00053691466491 0.00053187153965 0.00052692189563 
0.00052206410696 0.00051729592925 0.00051261605249 0.00050802234147 0.00050351394031 0.00049908981039 0.00049474841479 0.0004904882926 0.00048630695449 
0.00048220487819 0.00047817379473 0.00047421372405 0.00047032137819 0.00046649388709 0.00054982474828 0.00054454768773 0.00053936297076 0.00053426884735 
0.00052926782746 0.00052435933306 0.00051954263271 0.00051481505594 0.00051017513409 0.00050562080661 0.00050115111677 0.00049676462409 0.00049246062042 
0.0004882369122 0.00048409008519 0.0004800221151 0.00047602483536 0.00047209720144 0.00046823602497 0.00046443937162 0.00054682308598 0.00054159426329 
0.00053645688694 0.00053140892545 0.00052645287312 0.00052158871236 0.00051681537194 0.00051213078947 0.00050753294791 0.00050301957051 0.00049859003181 
0.00049424295531 0.00048997636019 0.00048578971747 0.00048167893505 0.00047764367627 0.00047368130979 0.0004697854699 0.00046595524884 0.00046218955566 
0.00054357859931 0.00053840303332 0.00053331681717 0.00052831899239 0.00052341181874 0.00051859525072 0.00051386806501 0.0005092291991 0.00050467553295 
0.00050020491086 0.00049581731337 0.00049151048331 0.00048728327761 0.00048313331547 0.00047905958777 0.00047505882981 0.00047112962464 0.00046726598706 
0.00046346688413 0.00045973158625 0.00054012716288 0.00053500808703 0.0005299768886 0.00052503298645 0.00052017771588 0.00051541208382 0.00051073470106 
0.00050614284278 0.00050163553751 0.00049721046508 0.00049286602506 0.00048860073028 0.00048441309646 0.00048030106859 0.00047626353118 0.00047229704064 
0.00046840169848 0.00046457015296 0.00046080294454 0.00045709879553 0.00053654283862 0.00053148288992 0.00052650881379 0.00052162305488 0.00051682293853 
0.00051211058837 0.00050748409296 0.0005029425903 0.00049848292604 0.00049410398847 0.00048980344499 0.00048558025897 0.00048143301501 0.00047735928209 
0.00047335818238 0.00046942717747 0.00046556332788 0.00046176589485 0.0004580306214 0.00045435798489 0.00053292111124 0.00052792143609 0.00052300745218 
0.00051818031376 0.00051343779391 0.00050878037283 0.0005042071021 0.00049971608189 0.00049530498088 0.00049097273355 0.00048671716557 0.00048253662564 
0.00047842902385 0.00047439424985 0.00047042953554 0.00046653348576 0.00046270324046 0.00045893849354 0.00045523536546 0.00045159422172 0.00052935875828 
0.00052442035321 0.00051956630547 0.00051479783904 0.00051011219547 0.00050551030772 0.00050099030547 0.00049655025412 0.00049218790954 0.00048790260493 
0.000483691755 0.00047955383814 0.00047548737191 0.00047149090857 0.00046756297062 0.00046370200345 0.0004599052675 0.00045617360782 0.00045250219944 
0.00044889223382 0.00052593724792 0.00052105848007 0.00051626323434 0.00051155237144 0.00050692307742 0.00050237533706 0.00049790773961 0.00049351861815 
0.00048920540965 0.00048496634013 0.00048080026083 0.00047670487837 0.00047267821104 0.0004687204747 0.00046482919258 0.00046100295671 0.00045724021624 
0.00045353929328 0.00044990119343 0.00044632152337 0.00052271520875 0.00051789369799 0.00051315455839 0.00050849833884 0.00050392455687 0.00049943005544 
0.00049501385498 0.00049067427387 0.00048640908021 0.00048221567013 0.00047809348212 0.00047404025785 0.00047005406794 0.00046613448864 0.00046227963983 
0.00045848835118 0.00045475910432 0.00045109035589 0.00044748325289 0.00044393354101 0.00051972949453 0.00051496236674 0.00051027793006 0.00050567403959 
0.00050115249559 0.00049670858001 0.0004923415344 0.00048805033772 0.00048383143964 0.00047968337354 0.0004756044369 0.00047159251157 0.00046764629787 
0.0004637649181 0.00045994642462 0.00045618973222 0.000452493457 0.00044885661305 0.00044527983186 0.00044175937088 0.00051699582743 0.00051228032686 
0.00050764641875 0.00050309274012 0.00049862039973 0.00049422503948 0.00048990583833 0.00048566034204 0.00048148650741 0.00047738205658 0.00047334562688 
0.00046937488202 0.00046546820724 0.00046162431674 0.00045784204008 0.00045411958854 0.00045045597403 0.00044685027373 0.00044330348856 0.00043981086397 
0.00051450998631 0.00050984227734 0.00050525600927 0.00050074913774 0.00049632350471 0.00049197408247 0.0004876999494 0.00048349917329 0.00047936886337 
0.00047530635193 0.00047131154004 0.00046738101772 0.00046351320209 0.00045970704296 0.00045596056886 0.00045227215126 0.00044864090329 0.0004450656227 
0.00044154657775 0.00043808305677 0.00051224754883 0.00050762499306 0.00050308315377 0.00049862032633 0.00049423822906 0.00048993200119 0.0004857006414 
0.00048154214149 0.00047745413203 0.00047343320839 0.00046947830114 0.00046558668 0.00046175770608 0.00045798916382 0.00045427819708 0.00045062418346 
0.0004470245889 0.00044347926696 0.00043998815113 0.00043655136476 0.00051016200964 0.00050558218409 0.0005010821864 0.00049666151701 0.0004923199833 
0.00048805487927 0.00048386451512 0.00047974672006 0.00047569893766 0.00047171800699 0.00046780279234 0.0004639503271 0.00046015918645 0.00045642699981 
0.00045275161511 0.00044913085324 0.00044556316188 0.00044204786948 0.00043858429709 0.00043517335575 0.00050818527859 0.00050364639858 0.00049918651062 
0.00049480547513 0.00049050220945 0.00048627764311 0.00048212699782 0.00047804859052 0.00047403990235 0.00047009822711 0.00046622187906 0.00046240788887 
0.00045865412363 0.00045495802234 0.00045131741043 0.00044772962478 0.00044419360757 0.00044070748533 0.00043727134638 0.0004338863323 0.00050622844451 
0.00050173042419 0.00049730967479 0.00049296744336 0.0004887027764 0.0004845170481 0.00048040511568 0.00047636623638 0.00047239596966 0.00046849252172 
0.00046465370781 0.00046087750312 0.00045716027417 0.0004535001858 0.00044989405925 0.00044633918993 0.0004428341206 0.00043937703147 0.0004359684447 
0.00043260929043 0.00050419624433 0.00049973903466 0.00049535830573 0.00049105559486 0.00048683053551 0.00048268299641 0.00047860961937 0.00047460870945 
0.00047067703555 0.00046681164933 0.00046301058312 0.00045927066639 0.00045558988898 0.00045196491989 0.00044839239121 0.00044487008026 0.00044139609009 
0.00043796876567 0.00043458748349 0.00043125267373 0.00050200023831 0.00049758597047 0.00049324696352 0.0004889841161 0.000484799197 0.00048069123651 
0.00047665742131 0.00047269549671 0.00046880252463 0.00046497475678 0.00046121047413 0.00045750691432 0.00045386118373 0.00045027043415 0.00044673127346 
0.00044324113468 0.00043979814915 0.00043640074542 0.00043304780537 0.00042974002215 0.00049958049997 0.00049521198055 0.00049091714343 0.00048669748023 
0.00048255413081 0.00047848714423 0.00047449355395 0.00047057100445 0.00046671689798 0.00046292686827 0.00045919892924 0.0004555307353 0.0004519195861 
0.00044836191117 0.00044485546629 0.00044139750701 0.00043798570144 0.0004346187348 0.00043129556408 0.00042801576969 0.00060717494257 0.00060141723762 
0.00059575714913 0.00059019412775 0.0005847289197 0.00057936025054 0.00057408810291 0.00056891006734 0.00056382519081 0.00055883150082 0.00055392800078 
0.0005491130536 0.00054438509257 0.00053974235337 0.00053518244658 0.00053070571262 0.00052630468501 0.00052197987951 0.00051772782333 0.00051354585573 
0.00060402984849 0.00059832043714 0.00059270917243 0.00058719382462 0.00058177503871 0.00057645297837 0.00057122587778 0.00056609234217 0.00056105128121 
0.00055610070845 0.00055123893853 0.00054646534628 0.00054177763322 0.00053717396985 0.00053265147857 0.00052821182796 0.0005238478205 0.00051955800506 
0.00051534057289 0.00051119264656 0.00060075057431 0.0005950933004 0.0005895329787 0.00058406717962 0.00057869730613 0.00057342296756 0.00056824274075 
0.00056315537695 0.00055815905237 0.00055325260619 0.00054843420832 0.00054370221996 0.00053905467648 0.00053449084075 0.00053000730587 0.00052560308927 
0.00052127677901 0.0005170222265 0.00051283931112 0.00050872547706 0.00059732749135 0.00059172428145 0.00058621726428 0.000580804016 0.00057548533283 
0.00057026064169 0.00056512898884 0.00056008932524 0.00055514000102 0.00055027811152 0.0005455036506 0.0005408144627 0.00053620868898 0.00053168412207 
0.00052723979244 0.00052287314911 0.00051858324696 0.00051436385587 0.00051021500794 0.00050613490104 0.00059377999559 0.00058823398985 0.000582783338 
0.00057742329974 0.00057215791492 0.0005669855578 0.00056190490541 0.00055691421761 0.00055201213802 0.00054719725901 0.00054246809464 0.00053782227816 
0.00053325824839 0.00052877407673 0.00052436829799 0.0005200391391 0.00051578541449 0.00051160174577 0.00050748722157 0.00050344129013 0.00059015382603 
0.00058466709191 0.00057927260188 0.00057397152188 0.00056876074914 0.0005636418059 0.00055861351507 0.00055367318234 0.00054882029674 0.00054405272164 
0.00053936884136 0.00053476671444 0.00053024506717 0.00052580129579 0.00052143498763 0.00051714362371 0.00051292429962 0.00050877720803 0.00050469752374 
0.00050068559674 0.0005865117786 0.00058108430088 0.00057574868329 0.00057050527892 0.0005653516045 0.00056028749249 0.00055531216878 0.00055042338781 
0.00054562002631 0.00054090032866 0.00053626258556 0.00053170466664 0.00052722507653 0.00052282202174 0.00051849479837 0.00051424087114 0.00051005776281 
0.00050594612475 0.00050190095218 0.00049792259059 0.00058291734915 0.00057755063692 0.00057227396691 0.00056708857741 0.00056199143842 0.00055698246849 