# vtk DataFile Version 5.1
vtk output
ASCII
DATASET STRUCTURED_POINTS
DIMENSIONS 20 20 20
SPACING 0.005 0.005 0.005
ORIGIN 0.2189 -0.051172 0.02882
POINT_DATA 8000
FIELD FieldData 1
potential 1 8000 double
0.0024460376118 0.0025099370848 0.0025761925647 0.0026450488547 0.0027167405472 0.0027914665903 0.0028693930913 0.0029506773434 0.0030355139988 
0.0031241702135 0.0032169301592 0.0033140828488 0.0034158783813 0.0035225357716 0.0036342663057 0.0037513105986 0.0038738579843 0.0040022029396 
0.004136637116 0.0042774159216 0.0024260882694 0.0024888967767 0.0025539858683 0.0026216149286 0.0026920144397 0.0027653940392 0.0028419137469 
0.0029217124911 0.0030049800674 0.0030919633763 0.0031829248807 0.0032781551914 0.0033779013588 0.0034823804515 0.0035917790041 0.0037062881107 
0.003826098065 0.0039514263945 0.0040825678932 0.004219803103 0.0023992966387 0.0024608999692 0.0025246962666 0.0025909307187 0.002659869625 
0.0027317122824 0.0028066224716 0.0028847353442 0.0029662276528 0.0030513071481 0.003140225562 0.0032332596852 0.0033306640501 0.0034326272201 
0.0035393600505 0.0036509863606 0.0037676505207 0.0038895486823 0.0040169566169 0.0041501999192 0.0023651405972 0.002425404464 0.0024877788536 
0.0025524984493 0.0026198142771 0.0026899303388 0.0027630206619 0.0028392101072 0.0029186863451 0.0030015995971 0.0030881977964 0.0031787399761 
0.0032734746496 0.0033725895792 0.0034762681474 0.0035846100238 0.0036977182836 0.003815780956 0.0039390576302 0.0040678912973 0.0023250889061 
0.002383922711 0.0024447841855 0.0025078938078 0.0025734652232 0.0026417221191 0.0027128250777 0.0027869263291 0.0028641704042 0.0029447102616 
0.0030287747535 0.0031165916355 0.0032083917445 0.0033043680372 0.0034046709381 0.0035093998745 0.003618652718 0.0037326017123 0.0038514868629 
0.0039756493402 0.0022818890269 0.0023392487767 0.0023985646393 0.0024600266217 0.0025238251185 0.0025901539529 0.0026591934695 0.0027310907938 
0.0028059963412 0.0028840556917 0.0029654713046 0.0030504508483 0.0031392038946 0.0032318910968 0.0033286581834 0.0034296085682 0.0035348595836 
0.0036445811836 0.0037589983482 0.0038784207278 0.0022384260284 0.0022943111777 0.0023520907878 0.0024119136579 0.0024739501406 0.0025383686523 
0.0026053461939 0.0026750373479 0.0027476013431 0.0028231807625 0.0029019545756 0.0029841076127 0.0030697977739 0.0031591988853 0.0032524334269 
0.0033496239684 0.0034509106655 0.0035564585546 0.003666486267 0.0037812409849 0.0021968798606 0.002251304063 0.0023075706421 0.0023657922299 
0.002426106729 0.0024886714386 0.0025536573489 0.0026212226713 0.0026915288518 0.0027647085661 0.0028409273084 0.0029203458212 0.0030030902263 
0.0030893223749 0.0031791681266 0.0032727550882 0.0033702337018 0.0034717792388 0.0035775886233 0.0036878760977 0.0021584501182 0.002211454914 
0.0022662395019 0.0023229003531 0.0023815587381 0.0024423558312 0.0025054478762 0.0025709955011 0.0026391573935 0.0027100705088 0.0027838702396 
0.0028607004156 0.0029406711506 0.0030239294851 0.0031105935033 0.003200806346 0.0032947121007 0.0033924781832 0.0034942966889 0.0036003485165 
0.0021236085933 0.0021752329165 0.0022285825555 0.0022837445032 0.0023408140128 0.0023999323494 0.0024612368801 0.002524893776 0.0025910489289 
0.0026598343333 0.0027313639784 0.0028057707442 0.0028831634585 0.0029636610798 0.0030473884589 0.003134468866 0.0032250425369 0.0033192812363 
0.0034173588975 0.0035194269699 0.0020924185988 0.0021427338745 0.0021947109917 0.0022484287377 0.0023039851685 0.0023615110059 0.0024211409897 
0.0024830181972 0.0025473058949 0.0026140964603 0.002683520639 0.0027556881585 0.0028306886713 0.0029086439885 0.0029896526892 0.0030738451316 
0.0031613428772 0.0032523091135 0.0033469036098 0.0034452548947 0.0020647915643 0.0021138680345 0.0021645461777 0.002216900089 0.0022710263937 
0.002327048199 0.0023851055315 0.0024453341006 0.0025078744604 0.0025728258913 0.0026403010114 0.0027103977968 0.0027832043088 0.0028588196247 
0.0029373406005 0.0030188680528 0.0031035341837 0.0031914665937 0.003282830881 0.0033777374993 0.0020406084747 0.0020885270437 0.0021379815619 
0.0021890560251 0.0022418386768 0.0022964625363 0.0023530567368 0.0024117534889 0.0024726827885 0.0025359417577 0.0026016279087 0.0026698255298 
0.0027406348863 0.0028141183929 0.0028903602933 0.0029694536082 0.0030515074156 0.003136648301 0.0032250313526 0.0033167571045 0.0020197178945 
0.0020665551823 0.0021148694584 0.0021647445113 0.0022162845808 0.0022696102673 0.0023248604902 0.0023821520194 0.0024416023062 0.0025033082932 
0.002567361178 0.002633846354 0.0027028511779 0.002774412223 0.0028485971107 0.0029254681361 0.0030051413264 0.0030877223057 0.0031733559585 
0.0032621501742 0.0020018195212 0.0020476378759 0.0020948771953 0.0021436378194 0.0021940293322 0.0022461762385 0.0023001953766 0.0023562026578 
0.0024143071462 0.002474596014 0.002537170684 0.0026021076249 0.0026694869291 0.002739331753 0.0028116669158 0.0028865385715 0.0029640374336 
0.0030442633005 0.0031273683791 0.0032134645672 0.001986206402 0.0020310532902 0.0020772767587 0.0021249930314 0.0021743210297 0.0022253821455 
0.0022782775747 0.0023331082001 0.0023899719984 0.0024489641758 0.0025101856082 0.0025737191713 0.0026396243881 0.0027079112019 0.0027785750468 
0.0028516258276 0.0029271326498 0.003005188427 0.0030859457216 0.0031695291758 0.0019714995929 0.002015402873 0.0020606483536 0.0021073674528 
0.0021556899775 0.0022057280225 0.0022575674534 0.0023112905825 0.0023669953894 0.0024247663021 0.0024847183768 0.0025469238202 0.0026114341974 
0.0026782463555 0.0027473314199 0.0028186697713 0.0028923005367 0.0029683021876 0.0030468418984 0.0031280451721 0.0019556025099 0.001998570744 
0.0020428435938 0.0020885740715 0.0021358964957 0.0021849190991 0.0022357122804 0.0022883515063 0.0023429106579 0.0023994786979 0.0024581661976 
0.0025190264338 0.0025821194257 0.00264742519 0.0027149058891 0.0027845168955 0.0028562904709 0.0029302726326 0.0030066419157 0.0030855034319 
0.0019361578252 0.0019781577904 0.0020214270918 0.002066127326 0.0021123951876 0.0021603392591 0.0022100300334 0.0022615236138 0.002314879645 
0.0023701856184 0.0024275167967 0.0024869276652 0.0025484695818 0.0026121219588 0.0026778512691 0.0027456147959 0.0028154330004 0.0028873359574 
0.0029614750178 0.0030379443762 0.0019113844073 0.0019523535524 0.0019945497235 0.0020381389157 0.0020832563106 0.002130010354 0.0021784728706 
0.00222869668 0.0022807228488 0.0023346123797 0.002390416858 0.0024481904591 0.002507973831 0.0025697590345 0.0026335266802 0.0026992417369 
0.002766921518 0.002836596824 0.0029083670581 0.0029823111496 0.0028156650144 0.0028894314042 0.0029659798668 0.0030455253277 0.0031282861026 
0.0032144743079 0.0033042965621 0.0033979576849 0.0034956890349 0.0035977578042 0.0037044208703 0.0038159726797 0.0039326790622 0.0040548082368 
0.0041826164709 0.0043164014104 0.0044564217972 0.0046029997154 0.0047564811359 0.0049172018904 0.0027878434267 0.0028602605783 0.0029353778454 
0.0030134136248 0.0030945774208 0.003179083281 0.0032671284877 0.0033589054061 0.0034546365626 0.0035545661004 0.0036589536712 0.0037680706647 
0.0038821814049 0.0040015356191 0.0041263665901 0.004256957267 0.0043935415505 0.0045364043257 0.0046858765734 0.004842303038 0.0027557226857 
0.002826716148 0.0029003225661 0.0029767387204 0.0030562050455 0.0031389101838 0.0032250584136 0.0033148263266 0.0034084234227 0.003506079117 
0.0036080350944 0.0037145569636 0.0038258963813 0.0039422708768 0.0040639404958 0.0041911190039 0.0043240321376 0.0044629419053 0.0046081601606 
0.0047600348986 0.0027190172156 0.0027884994758 0.0028605099722 0.0029352402809 0.0030129045179 0.0030936994929 0.0031778215728 0.0032654322858 
0.0033567501298 0.0034519794448 0.0035513429736 0.0036550855036 0.0037634573471 0.0038766621184 0.0039949427735 0.0041184828559 0.00424748385 
0.0043822064588 0.0045229369702 0.0046700210399 0.0026785135063 0.0027464232649 0.0028167704724 0.0028897422108 0.0029655247205 0.0030443216095 
0.0031263125549 0.0032116773609 0.0033006009429 0.0033932685273 0.0034899064816 0.0035907330131 0.0036959701317 0.0038058371929 0.0039205358603 
0.0040402540287 0.0041651701026 0.0042955420013 0.00443161888 0.0045737465212 0.0026357401042 0.0027020360779 0.0027706891478 0.0028418661876 
0.0029157343567 0.0029924841148 0.003072293257 0.0031553332227 0.0032417911354 0.0033318312188 0.003425668932 0.0035235028214 0.0036255461738 
0.0037319809687 0.0038430124031 0.0039588102641 0.0040795613999 0.0042054938221 0.0043368593085 0.0044739763966 0.0025924221485 0.002657101587 
0.0027240583448 0.0027934358824 0.002865393307 0.0029400941009 0.003017719554 0.0030984339346 0.0031824124186 0.0032698224626 0.0033608522658 
0.0034556920056 0.0035545253872 0.003657530047 0.0037648921336 0.0038767889119 0.0039933853302 0.0041149202739 0.0042416249922 0.0043737653241 
0.0025500465985 0.0026131240796 0.0026784012699 0.0027460051156 0.0028160732986 0.002888763773 0.0029642394847 0.0030426708008 0.0031242229775 
0.0032090523224 0.003297332242 0.0033892433528 0.0034849289304 0.0035845859518 0.0036883654966 0.0037964534019 0.0039090115627 0.004026259234 
0.0041484232807 0.0042757380165 0.0025096231122 0.0025711322519 0.00263476111 0.0027006269356 0.0027688547162 0.0028395932016 0.0029129891113 
0.0029892115769 0.0030684176702 0.0031507609664 0.0032363889831 0.0033254699145 0.0034181420453 0.0035145771107 0.0036149277232 0.0037193603842 
0.0038280429239 0.0039411733316 0.0040589687556 0.0041816382007 0.0024717138055 0.0025316915156 0.0025937187956 0.0026578999003 0.0027243480496 
0.0027931997618 0.0028645999267 0.0029387098501 0.0030156758796 0.0030956383714 0.0031787380078 0.0032651235685 0.0033549227675 0.0034483029865 
0.0035453953164 0.0036463583847 0.003751365023 0.0038605811649 0.0039742137104 0.0040924536148 0.0024365609265 0.0024950690818 0.0025555486599 
0.0026181005015 0.0026828331927 0.0027498819422 0.0028193776752 0.0028914630837 0.002966295005 0.0030439945572 0.0031246985257 0.0032085384789 
0.0032956304471 0.0033861224174 0.0034801484678 0.003577846084 0.0036793700111 0.0037848875508 0.003894593769 0.0040086362759 0.002404206503 
0.0024613010715 0.0025202995439 0.0025812909735 0.0026443831832 0.0027097050876 0.0027773848069 0.0028475598916 0.0029203728762 0.0029959348219 
0.0030743791753 0.0031558183829 0.0032403660182 0.0033281524332 0.0034192981395 0.0035139222301 0.0036121807276 0.0037142114779 0.0038202057973 
0.003930298925 0.0023745606148 0.0024303125302 0.0024878917783 0.0025473964292 0.0026089282532 0.0026726083786 0.0027385689242 0.0028069371227 
0.0028778446471 0.0029514006054 0.0030277196097 0.0031069002116 0.0031890747372 0.0032743314109 0.003362778787 0.0034545303797 0.0035497202634 
0.0036484771156 0.0037509832697 0.0038573590195 0.0023474257088 0.0024018938959 0.0024581233865 0.0025162098057 0.0025762608072 0.0026383892995 
0.0027027256238 0.0027693878652 0.0028385032268 0.0029101690904 0.0029844974122 0.0030615768358 0.00314153017 0.0032244264265 0.0033103578482 
0.0033994208648 0.0034917383676 0.0035874295005 0.0036866536492 0.0037895384612 0.0023224108345 0.0023756523427 0.0024305906855 0.0024873272427 
0.0025459687077 0.0026066337356 0.0026694349325 0.0027344904793 0.0028019184811 0.0028718050018 0.0029442645037 0.0030193750792 0.0030972473562 
0.0031779388238 0.0032615212371 0.0033480663771 0.0034376839038 0.0035304881612 0.0036266293332 0.0037262232651 0.0022988481358 0.0023509036895 
0.002404596257 0.0024600361129 0.0025173335981 0.0025766034508 0.0026379475305 0.0027014768012 0.0027672979142 0.0028354999549 0.0029061870138 
0.0029794395637 0.0030553451448 0.0031339517905 0.0032153133095 0.0032994817059 0.003386550877 0.0034766201586 0.0035698323379 0.0036663047171 
0.0022756939974 0.0023265883335 0.0023790698089 0.0024332496514 0.0024892423707 0.0025471600407 0.0026070972632 0.0026691530104 0.0027334260395 
0.002800003711 0.0028689791717 0.0029404329205 0.0030144356792 0.0030910254533 0.0031702443889 0.003252123417 0.0033367417826 0.0034241732065 
0.0035145728945 0.0036080393395 0.0022516135367 0.0023013535711 0.0023526288668 0.0024055588473 0.0024602587854 0.0025168349783 0.0025753772499 
0.0026359741406 0.0026987073975 0.0027636749829 0.0028309568562 0.0029006099424 0.0029727133616 0.0030472906009 0.003124373709 0.0032039784847 
0.0032861764138 0.0033710210801 0.0034586609255 0.0035491774622 0.0022252492122 0.0022738204139 0.002323871456 0.0023755290093 0.0024289104332 
0.0024841166807 0.0025412354577 0.0026003439024 0.0026615154609 0.0027248310227 0.0027903652407 0.0028581695755 0.0029283113349 0.0030008161768 
0.0030757031089 0.0031529880422 0.0032327329922 0.003314975463 0.0033998492327 0.003487420822 0.0021956219282 0.0022429892661 0.0022917847982 
0.0023421319132 0.0023941452486 0.002447925271 0.0025035547422 0.0025611060361 0.0026206370108 0.0026822271654 0.0027459209271 0.002811778678 
0.0028798560279 0.002950182456 0.0030227751657 0.0030976487857 0.0031748551413 0.0032544406703 0.0033364906636 0.003421073669 0.0031858669538 
0.0032693712216 0.0033560589488 0.0034461503436 0.0035398498842 0.0036373885348 0.0037389917515 0.0038448954187 0.0039553533649 0.0040706439764 
0.004191031445 0.0043168193992 0.0044482958589 0.004585763984 0.0047295273277 0.0048799204386 0.0050372662147 0.0052019276045 0.0053742937645 
0.0055547703713 0.0031515643402 0.0032334812346 0.0033184985282 0.0034068184503 0.0034986481429 0.0035942033398 0.0036937068602 0.0037973814395 
0.0039054657167 0.0040182215732 0.004135916134 0.0042588234698 0.0043872281456 0.0045214152368 0.0046616540608 0.0048082887723 0.0049615935534 
0.0051219210367 0.0052896308437 0.0054651210311 0.0031144846798 0.0031947740075 0.00327806662 0.0033645396119 0.0034544327932 0.0035479344393 
0.0036452626594 0.0037466281388 0.0038522589063 0.0039623986585 0.004077300637 0.0041972347323 0.004322465966 0.0044532552417 0.004589867404 
0.004732612541 0.0048817486049 0.0050376052233 0.0052005322091 0.0053708941984 0.0030744663696 0.003153067234 0.0032345765219 0.0033191716161 
0.0034070618867 0.0034984435624 0.0035935176711 0.0036924897382 0.0037955665689 0.0039030030146 0.0040150212782 0.0041318719625 0.0042538120974 
0.0043810778653 0.0045139523283 0.0046526805322 0.0047975172832 0.004948776966 0.0051067768614 0.0052718890729 0.0030319597602 0.0031088302269 
0.0031885091372 0.0032711774012 0.0033570120251 0.003446210151 0.0035389714936 0.0036354818568 0.0037359566776 0.0038406138033 0.0039496669292 
0.0040633542764 0.0041819152579 0.0043055643102 0.0044345817538 0.0045691898573 0.0047096351035 0.0048562029521 0.0050091975971 0.0051689632947 
0.0029878559626 0.0030629690013 0.0031407974259 0.0032215032966 0.0033052585911 0.0033922487733 0.0034826577561 0.0035766782412 0.0036745038771 
0.0037763282798 0.003882374853 0.003992855102 0.0041079918757 0.004227996834 0.0043531106819 0.0044835560232 0.0046195631312 0.0047613997951 
0.0049093624112 0.0050637642372 0.0029432318086 0.0030165774199 0.0030925510498 0.0031712973296 0.0032529746475 0.0033377530993 0.0034258096346 
0.0035173303617 0.0036124995241 0.0037114999924 0.0038145394621 0.0039218148782 0.0040335290357 0.0041498870017 0.0042711080977 0.004397412982 
0.0045290061575 0.0046661506245 0.0048091240524 0.0049582018027 0.0028990844976 0.0029706825008 0.003044815302 0.0031216147716 0.0032012325749 
0.0032838247696 0.0033695566321 0.0034586102025 0.0035511594884 0.0036473781612 0.0037474506157 0.0038515701791 0.0039599112652 0.0040726864578 
0.0041900837851 0.0043123197002 0.0044395877793 0.0045721326733 0.0047102113341 0.0048540838736 0.0028561949929 0.0029260700115 0.002998392835 
0.0030732804586 0.0031508746222 0.003231324118 0.0033147870047 0.0034014273086 0.0034914212471 0.0035849218768 0.0036821059312 0.003783151078 
0.0038882178169 0.0039975090689 0.0041111966622 0.004229480643 0.004352555612 0.0044806352627 0.0046139688561 0.0047527877086 0.0028150747171 
0.0028832648802 0.0029538116397 0.0030268347317 0.003102455804 0.0031808207865 0.0032620726356 0.0033463761808 0.0034338929883 0.0035247684828 
0.0036191683208 0.003717240158 0.0038191539733 0.0039250908808 0.0040352117459 0.0041496902268 0.0042687252478 0.0043925144114 0.0045212804771 
0.0046552323842 0.0027760030425 0.0028425562226 0.0029113810471 0.0029825836027 0.0030562940734 0.0031326418198 0.0032117647816 0.0032938109249 
0.0033789403497 0.0034672899179 0.003559004716 0.0036542370455 0.0037531303433 0.0038558512291 0.0039625592129 0.004073402577 0.0041885758173 
0.0043082552255 0.0044326485851 0.0045619461616 0.0027390756259 0.0028040412388 0.0028711969741 0.0029406459385 0.0030125063468 0.0030869024478 
0.0031639725143 0.0032438555625 0.0033266990468 0.0034126254876 0.0035017777318 0.0035942961306 0.003690305978 0.0037899653888 0.0038934154134 
0.0040007977967 0.004112286358 0.0042280382814 0.004348266138 0.0044731268716 0.0027042335774 0.0027676695487 0.0028332150756 0.0029009690594 
0.0029710484237 0.003043570503 0.0031186708863 0.0031964768516 0.0032771296967 0.0033607448965 0.0034474571945 0.0035373804119 0.0036306502878 
0.0037273984119 0.0038277547455 0.0039318451885 0.0040398280271 0.0041518503606 0.0042681053169 0.004388734399 0.0026712894303 0.0027332492816 
0.0027972380783 0.002863361282 0.0029317257756 0.0030024519728 0.003075657644 0.0031514766197 0.0032300377545 0.0033114408835 0.0033958203169 
0.0034832701562 0.0035739396684 0.0036679230308 0.0037653356337 0.0038662957551 0.0039709454074 0.004079419335 0.0041918915676 0.0043085025029 
0.0026398878051 0.0027004183912 0.0027629051021 0.0028274498134 0.0028941622088 0.002963156419 0.0030345479491 0.0031084582402 0.003185012897 
0.0032643020585 0.0033464516734 0.0034315526624 0.0035197265904 0.0036110715685 0.0037056813993 0.0038036587349 0.0039051279397 0.0040102175598 
0.0041190828359 0.0042318564207 0.0026094858059 0.0026686222198 0.0027296457086 0.002792659252 0.0028577711666 0.002925092158 0.0029947310295 
0.0030667988299 0.0031414166078 0.0032186718936 0.0032986706948 0.0033815091849 0.0034672940384 0.0035561013778 0.0036480222812 0.0037431349551 
0.0038415589215 0.003943397461 0.0040488054132 0.0041578976187 0.0025793321197 0.0026371020761 0.0026966919216 0.0027582055229 0.0028217530793 
0.0028874392135 0.0029553685493 0.0030256463879 0.003098366891 0.0031736435852 0.003251551851 0.0033321863804 0.0034156383528 0.0035019792642 
0.0035912843626 0.0036836188037 0.0037790892785 0.0038777807831 0.0039798442125 0.0040853761311 0.0025485654852 0.0026049785893 0.0026631484621 
0.0027231784011 0.0027851767834 0.0028492453354 0.0029154845349 0.002983985741 0.0030548418937 0.0031281529473 0.0032039960181 0.0032824438622 
0.0033635904623 0.0034474938249 0.0035342148878 0.0036238106659 0.0037163788441 0.0038119898153 0.003910777757 0.0040128280444 0.0025163720277 
0.0025714279248 0.0026281723952 0.0026867133645 0.0027471566756 0.0028096014442 0.0028741385375 0.0029408595276 0.003009844292 0.0030811801437 
0.0031549400982 0.0032311950384 0.0033100194484 0.0033914716327 0.0034756063931 0.0035624684959 0.0036521420719 0.0037446995796 0.0038402502222 
0.003938867001 0.002482183067 0.0025358661353 0.0025911754475 0.0026482136417 0.002707083499 0.0027678804192 0.0028306919313 0.0028956015014 
0.0029626790393 0.0030320110993 0.0031036494998 0.003177669211 0.0032541314318 0.0033330968961 0.0034146100572 0.003498717247 0.0035854867905 
0.0036749844719 0.0037673011877 0.003862500698 0.0035551986325 0.0036482979158 0.0037449699393 0.0038454327461 0.003949906251 0.0040586256643 
0.0041718352726 0.0042897911361 0.0044127668964 0.0045410514993 0.0046749347244 0.0048147313906 0.0049607542884 0.0051133370776 0.0052728152023 
0.005439580563 0.0056139814796 0.0057964368492 0.0059873755339 0.0061872554252 0.0035152417006 0.0036065396068 0.0037013114373 0.0037997629468 
0.0039021102776 0.0040085705779 0.0041193877604 0.0042348005767 0.0043550683248 0.0044804686541 0.004611279152 0.0047477961039 0.0048903214529 
0.0050391681136 0.0051946489665 0.0053571362556 0.0055269606647 0.0057045203396 0.0058902101562 0.0060844662869 0.0034734537934 0.0035629212751 
0.0036557615215 0.0037521613324 0.0038523254589 0.0039564890767 0.0040648620789 0.0041776850986 0.0042951966537 0.0044176623042 0.0045453440613 
0.0046785269498 0.0048174986353 0.0049625496274 0.0051139699861 0.0052721221177 0.0054373058927 0.0056098962398 0.005790271035 0.0059788433388 
0.0034297399683 0.0035173409511 0.0036082080832 0.0037025196565 0.0038004836284 0.0039023009202 0.004008187401 0.0041183700805 0.0042330647023 
0.0043525428418 0.0044770463339 0.0046068345904 0.0047421848998 0.0048833628264 0.0050306799263 0.0051844307177 0.0053449098026 0.0055124686599 
0.0056874689818 0.0058702944427 0.0033843743661 0.003470080936 0.003558945161 0.003651144973 0.0037468611538 0.0038463003078 0.0039496668127 
0.0040571658237 0.004169024744 0.0042854765958 0.0044067560088 0.0045331102682 0.0046647961307 0.0048020545467 0.0049452012462 0.0050944946405 
0.0052502289477 0.0054127199758 0.0055823102963 0.0057593650576 0.0033379060618 0.0034216986317 0.003508545396 0.0035986111335 0.0036920703927 
0.0037891155753 0.0038899375706 0.0039947405015 0.0041037299425 0.0042171343627 0.0043351671163 0.0044580647351 0.0045860707052 0.0047194156243 
0.0048583763578 0.00500321238 0.005154187512 0.0053116037699 0.0054757858109 0.0056470732823 0.0032910187808 0.0033728958949 0.0034577252325 
0.0035456596309 0.0036368661842 0.0037315152273 0.0038297988021 0.0039319064549 0.0040380320391 0.0041483942276 0.0042631948979 0.0043826492795 
0.0045069829169 0.0046364240031 0.0047712194652 0.0049116245783 0.0050578775116 0.0052102651995 0.0053690931479 0.0055346745043 0.003244400427 
0.0033243757753 0.0034072008128 0.0034930176278 0.0035819825885 0.0036742614239 0.0037700323778 0.0038694700646 0.0039727730165 0.0040801264535 
0.0041917246015 0.0043077785553 0.0044284889494 0.0045540837728 0.0046847794114 0.0048208194443 0.004962429 0.0051098793147 0.0052634470313 
0.005423421773 0.0031986239437 0.0032767192205 0.0033575696982 0.0034412981939 0.0035280567766 0.0036180010475 0.0037112930618 0.0038081142675 
0.0039086423653 0.0040130418174 0.0041215115652 0.004234236277 0.004351400939 0.0044732330497 0.0045999248515 0.0047316991787 0.004868783077 
0.0050114096899 0.005159848181 0.005314355686 0.0031541089689 0.003230359644 0.0033092598348 0.0033909391065 0.0034755391618 0.0035631983058 
0.0036540717393 0.0037483323027 0.0038461491239 0.0039476739911 0.0040530932094 0.004162581783 0.0042763083373 0.004394481385 0.0045172861699 
0.0046449267939 0.0047776174853 0.0049155727363 0.0050590386582 0.0052082543918 0.0031111126008 0.0031855586302 0.0032625621544 0.0033422386489 
0.0034247228861 0.0035101508355 0.0035986766273 0.00369044703 0.0037856274729 0.0038843700774 0.0039868307636 0.0040931820757 0.0042035833719 
0.0043182266322 0.0044372760031 0.0045609257969 0.0046893742328 0.0048228207761 0.0049614912918 0.0051056024058 0.0030697426395 0.0031424315882 
0.0032175803486 0.003295307992 0.003375737158 0.0034589997971 0.0035452384224 0.0036345934583 0.0037272333793 0.0038232772188 0.003922884349 
0.0040262145979 0.0041334102581 0.004244646588 0.0043600873335 0.0044798920108 0.00460425823 0.0047333665752 0.0048674236956 0.0050066250251 
0.0030299705925 0.0031009467987 0.003174295172 0.0032501261535 0.0033285618601 0.0034097221073 0.0034937469111 0.0035807738412 0.0036709438355 
0.0037643852188 0.0038612513076 0.0039616624994 0.0040657732355 0.004173739733 0.0042857085152 0.0044018252343 0.0045222698113 0.0046472101983 
0.0047768382887 0.0049113294699 0.0029916429684 0.0030609537812 0.0031325498524 0.0032065387839 0.0032830366974 0.0033621633359 0.0034440418199 
0.0035288100415 0.0036166062179 0.0037075349427 0.0038017425458 0.0038993440871 0.0040004972735 0.0041053201056 0.0042139516612 0.0043265267425 
0.0044432019723 0.0045641437737 0.0046895179956 0.0048194900939 0.002954475411 0.0030221625145 0.0030920516663 0.0031642477473 0.0032388632297 
0.0033160120936 0.0033958147903 0.0034783953923 0.0035638803042 0.003652390088 0.0037440378013 0.003838935261 0.003937222838 0.0040390124566 
0.0041444325285 0.0042535966556 0.0043666514045 0.0044837414619 0.0046050302438 0.0047306567849 0.0029180579755 0.0029841557517 0.0030523769397 
0.0031228215692 0.003195600632 0.0032708219713 0.0033486035568 0.0034290574878 0.0035123033437 0.0035984580759 0.0036876187745 0.003779893424 
0.0038754109841 0.0039742646336 0.004076573793 0.00418244316 0.0042920018553 0.0044053713735 0.0045227168158 0.0046441572419 0.002881865747 
0.0029464036573 0.0030129837992 0.0030817097562 0.0031526866995 0.0032260207241 0.0033018219678 0.0033802000609 0.0034612531171 0.0035451024144 
0.0036318291993 0.0037215475551 0.0038143544828 0.0039103491434 0.0040096310213 0.0041122887817 0.004218450326 0.0043282095385 0.0044417278178 
0.0045591083206 0.0028453425554 0.0029083330916 0.0029732917933 0.003040319948 0.0031095173235 0.0031809870549 0.0032548322968 0.0033311541399 
0.0034100498059 0.0034916248832 0.0035759613249 0.0036631491637 0.0037532932939 0.0038464755388 0.0039427792832 0.0040422907542 0.0041451218731 
0.0042513572112 0.0043611371943 0.0044745578303 0.0028079744432 0.0028694282282 0.0029327738894 0.0029981084777 0.003065535254 0.0031351499183 
0.00320705006 0.0032813298889 0.0033580786824 0.0034373918785 0.0035193453513 0.0036040258163 0.0036915203106 0.0037819101918 0.0038752653968 
0.0039716708327 0.0040712147564 0.0041739919284 0.0042800964851 0.00438963827 0.0027694227259 0.002829338812 0.0028910730646 0.0029547213346 
0.003020377499 0.0030881367787 0.0031580892114 0.0032303231317 0.0033049224607 0.0033819709691 0.0034615437358 0.0035437120475 0.0036285644887 
0.0037161636 0.0038065856976 0.0038999033716 0.0039961913109 0.0040955417124 0.0041980298307 0.0043037496811 0.0039225969175 0.0040251328218 
0.0041316103997 0.0042422566516 0.004357305169 0.0044769948975 0.0046015953162 0.0047313747867 0.0048666210271 0.0050076408133 0.0051547444423 
0.0053082642942 0.0054685478771 0.0056359436483 0.0058108282602 0.0059936174601 0.0061847162409 0.0063845805349 0.006593678021 0.0068125008167 
0.0038775257719 0.0039780528118 0.004082412579 0.004190823923 0.004303500471 0.0044206837721 0.0045426150288 0.0046695608848 0.0048017931866 
0.0049396054542 0.0050832901828 0.0052331687077 0.0053895609201 0.0055528075135 0.0057232568254 0.0059013103854 0.0060873428841 0.0062817828192 
0.0064850773326 0.0066976890692 0.0038312098546 0.0039297199837 0.0040319503042 0.0041380937074 0.0042483658604 0.0043630094523 0.0044822462492 
0.004606332085 0.0047355213301 0.0048700976986 0.0050103355816 0.0051565395236 0.00530901358 0.0054680896141 0.0056340789123 0.0058073677198 
0.0059883082575 0.006177305484 0.0063747772358 0.0065811653492 0.0037836165826 0.0038800799494 0.0039801466348 0.0040840076285 0.0041918698919 
0.004303945962 0.0044204623447 0.0045416596459 0.0046677715223 0.0047990822344 0.0049358450572 0.0050783501034 0.0052268809983 0.0053817339221 
0.0055432494725 0.0057117576835 0.0058875873964 0.0060711196997 0.0062627589699 0.0064629081672 0.0037349159058 0.0038293170408 0.0039272086293 
0.0040287635841 0.0041341844861 0.0042436782257 0.0043574554878 0.0044757443794 0.0045987746426 0.0047268019923 0.0048600791738 0.0049988652606 
0.0051434343735 0.0052940679188 0.0054510684932 0.0056147737447 0.0057854809095 0.0059635606464 0.0061493600486 0.0063432910635 0.0036854612653 
0.0037777904067 0.003873493248 0.0039727402139 0.0040757144091 0.0041826166822 0.0042936489169 0.0044090214082 0.0045289605024 0.0046537024807 
0.0047834796617 0.0049185423931 0.0050591549544 0.005205569421 0.0053580925019 0.0055170118707 0.0056826191559 0.0058552496034 0.006035250464 
0.0062229936327 0.0036357092454 0.0037259656386 0.003819483603 0.0039164226162 0.0040169618034 0.0041212774919 0.0042295713867 0.0043420392608 
0.0044588978497 0.0045803675054 0.0047066659479 0.0048380301821 0.0049747039802 0.0051169345425 0.0052649994018 0.0054191706058 0.005579722767 
0.0057469698636 0.0059212350854 0.0061028605001 0.0035861257543 0.0036743270812 0.0037656734289 0.0038603220026 0.0039584369668 0.0040601889021 
0.0041657709507 0.0042753619593 0.0043891683365 0.0045074026094 0.0046302593743 0.0047579678898 0.0048907564032 0.0050288571134 0.0051725238212 
0.005322015133 0.0054775939359 0.0056395457077 0.0058081655268 0.0059837817697 0.0035371338314 0.0036232984375 0.0037125039112 0.0038048879329 
0.0039006094891 0.003999833711 0.0041027322711 0.0042094918525 0.0043202943739 0.0044353408771 0.0045548174058 0.0046789381756 0.0048079030157 
0.0049419571669 0.0050813159449 0.0052262232431 0.005376927634 0.0055336985692 0.005696802529 0.0058665419476 0.0034890644246 0.003573222019 
0.0036603086189 0.0037504626745 0.003843834276 0.0039405732049 0.0040408431154 0.0041448190949 0.0042526772151 0.0043646063392 0.0044807744601 
0.0046013852099 0.0047266239297 0.0048567209605 0.0049918778117 0.0051323198936 0.0052782753258 0.0054299940725 0.0055877343196 0.0057517555065 
0.0034421349961 0.0035243182692 0.0036093284934 0.0036972966472 0.0037883586552 0.0038826607402 0.0039803638163 0.0040816188032 0.0041866004255 
0.0042954865569 0.0044084305742 0.0045256213189 0.0046472400211 0.0047734880825 0.0049045582067 0.0050406630865 0.0051820083149 0.0053288308211 
0.0054813623437 0.0056398457382 0.003396439795 0.0034766939352 0.0035596732608 0.0036454981476 0.0037343044886 0.0038262278049 0.0039214172179 
0.0040200247214 0.0041222058935 0.0042281326955 0.0043379453484 0.0044518119497 0.0045699138581 0.0046924329655 0.0048195443255 0.0049514423737 
0.0050883279349 0.0052304113395 0.0053779058639 0.0055310286793 0.0033519755126 0.0034303408289 0.0035113326994 0.0035950671789 0.0036816692651 
0.0037712752087 0.0038640156378 0.0039600426497 0.0040594998823 0.0041625470194 0.0042693202133 0.0043799696616 0.0044946599264 0.00461356899 