# vtk DataFile Version 5.1
vtk output
ASCII
DATASET STRUCTURED_POINTS
DIMENSIONS 50 50 50
SPACING 0.002 0.002 0.002
ORIGIN 0.2174 -0.052672 0.02732
POINT_DATA 125000
FIELD FieldData 1
potential 1 125000 double
0.29622752938 0.29630011486 0.29636593341 0.29642244228 0.29646809808 0.29650223048 0.29652595252 0.29654102723 0.29655062501 
0.29655754057 0.29656469967 0.29657455918 0.29658847437 0.29660639931 0.29662852146 0.29665307096 0.29667767382 0.29669992052 
0.29671738038 0.29672649268 0.29672604715 0.2967141097 0.29668981727 0.29665348706 0.29660558296 0.29654708403 0.2964807133 
0.29640791456 0.29633164306 0.29625552822 0.29618222812 0.29611498199 0.29605536895 0.29600720397 0.29597150689 0.29594976227 
0.29594326458 0.29595232756 0.29597785191 0.29602032632 0.29607975893 0.29615704703 0.29625169015 0.29636201312 0.29648754462 
0.29662544079 0.29677280602 0.29692695098 0.2970834676 0.29723838844 0.31388697121 0.3139659019 0.31403865249 0.31410199994 
0.31415454862 0.31419552093 0.31422560011 0.31424590595 0.31425986458 0.31427020404 0.31427932574 0.31428980033 0.31430278239 
0.31431973781 0.31433988564 0.3143619234 0.31438415836 0.31440435698 0.31441974058 0.31442830786 0.3144277903 0.31441659372 
0.31439371923 0.31435917799 0.31431355475 0.31425717213 0.31419260324 0.31412141108 0.31404631637 0.31397066155 0.31389761908 
0.31382992913 0.31376997825 0.31372095149 0.3136845493 0.31366255448 0.31365602102 0.31366580295 0.31369272803 0.31373696726 
0.31379842562 0.31387825615 0.31397474725 0.31408661519 0.3142124085 0.31434982975 0.31449593212 0.31464728609 0.31479937782 
0.31494885377 0.3320839559 0.33216983271 0.33224941517 0.33232003777 0.33237990234 0.33242809001 0.33246489827 0.33249122934 
0.33251012755 0.33252375453 0.33253480738 0.33254532775 0.33255723345 0.3325718951 0.33258922121 0.33260769327 0.33262646802 
0.33264377443 0.33265741615 0.33266481595 0.33266450532 0.33265485986 0.33263440579 0.33260320294 0.33256093934 0.33250871796 
0.33244780937 0.33237975659 0.33230744458 0.33223385103 0.33216203732 0.33209482101 0.33203484568 0.33198559582 0.33194888241 
0.33192642656 0.33192029315 0.33193078757 0.33195884994 0.33200451761 0.33206748427 0.33214824416 0.3322449942 0.33235628049 
0.33248053746 0.33261477579 0.33275621498 0.33290154267 0.33304565365 0.33318636855 0.3507012923 0.35079389782 0.35088055831 
0.35095900744 0.35102601562 0.35108212388 0.35112569106 0.3511580951 0.35118177903 0.35119876875 0.3512113712 0.35122172236 
0.35123200399 0.351243499 0.35125685322 0.35127130393 0.3512859767 0.35129988272 0.35131111055 0.35131751988 0.35131802458 
0.351310412 0.3512936402 0.35126688438 0.35122985403 0.35118307834 0.35112737169 0.3510641376 0.3509957829 0.35092525882 
0.35085524924 0.35078927947 0.35072985392 0.35068069478 0.3506436904 0.35062177872 0.35061538334 0.3506265453 0.35065562165 
0.35070209519 0.35076650778 0.35084703753 0.35094280015 0.35105177805 0.35117231083 0.35130103446 0.35143516505 0.3515713973 
0.35170495138 0.35183384599 0.36960837543 0.3697074921 0.3698016145 0.36988716968 0.36996200699 0.37002505611 0.37007566101 
0.37011398094 0.37014231168 0.37016222085 0.37017591632 0.37018566719 0.37019367656 0.37020169091 0.37021059484 0.37022025657 
0.37023046058 0.37024069141 0.37024959477 0.37025533268 0.37025699541 0.37025215831 0.37023979849 0.3702186962 0.37018796208 
0.37014791806 0.37009880055 0.37004134938 0.36997807115 0.36991136872 0.36984413186 0.36977976538 0.3697214244 0.36967213519 
0.36963548967 0.36961344233 0.36960756407 0.36961920725 0.36964889387 0.36969642543 0.36976110534 0.36984065228 0.36993467526 
0.3700403189 0.37015511018 0.37027645343 0.37040092922 0.37052537045 0.37064643265 0.37076123824 0.38866527523 0.3887707312 
0.38887144778 0.38896391397 0.38904597103 0.38911574677 0.38917272077 0.38921642658 0.38924879972 0.38927103102 0.38928545418 
0.38929424766 0.38929944738 0.38930330091 0.38930757544 0.38931211987 0.38931782427 0.38932428459 0.38933105011 0.38933669005 
0.38933946042 0.38933823636 0.38933119117 0.38931645134 0.3892931264 0.38926086065 0.38921885242 0.38916802533 0.38911057292 
0.38904814562 0.38898406159 0.38892165013 0.38886417082 0.3888156477 0.38877915746 0.38875741957 0.38875192928 0.38876395406 
0.38879441709 0.38884235299 0.38890637941 0.3889851154 0.38907644805 0.38917743588 0.3892854316 0.38939802446 0.38951164889 
0.38962294118 0.38972946213 0.38982877992 0.40772417112 0.40783499774 0.40794153386 0.40804013085 0.40812858362 0.40820430452 
0.4082667525 0.4083150316 0.40835073074 0.40837481858 0.40838939197 0.40839675132 0.408398784 0.4083984808 0.40839772546 
0.4083975635 0.40839888086 0.4084016915 0.40840651895 0.40841224676 0.40841684967 0.40841979422 0.40841824142 0.40841053875 
0.40839528961 0.40837112918 0.40833700765 0.40829321536 0.40824175208 0.40818406262 0.4081233845 0.40806285905 0.40800678717 
0.40795879359 0.40792265981 0.40790108099 0.4078960668 0.40790882818 0.40793964367 0.40798746373 0.40805162951 0.40812869076 
0.40821664887 0.40831212386 0.4084127995 0.40851536727 0.4086172714 0.40871481844 0.40880606495 0.40888885873 0.42663261579 
0.42674820897 0.42685933968 0.4269629751 0.42705623205 0.42713675376 0.42720346723 0.4272553818 0.42729354143 0.42731872893 
0.42733293488 0.42733829399 0.42733732436 0.42733295132 0.42732747592 0.42732288558 0.42732004655 0.42732010189 0.42732327202 
0.42732922979 0.42733611397 0.42734329964 0.42734782956 0.42734736893 0.42733996484 0.42732397373 0.4272981541 0.42726172941 
0.42721627683 0.42716332302 0.42710572555 0.42704777378 0.42699285843 0.42694553004 0.42690990437 0.42688859275 0.42688411088 
0.42689772816 0.4269287112 0.42697687458 0.42704021437 0.42711555467 0.4271998926 0.42728968792 0.42738214817 0.42747450541 
0.42756406623 0.42764759097 0.42772350295 0.42778987741 0.44523840413 0.44535642861 0.44547090454 0.44557777252 0.44567444846 
0.44575830597 0.44582791901 0.44588203331 0.44592147115 0.44594699076 0.44596032043 0.44596367086 0.44595969129 0.44595168007 
0.4459421775 0.44593367815 0.44592754437 0.44592523681 0.44592745089 0.44593415955 0.44594379787 0.44595493514 0.44596537922 
0.44597198356 0.44597246491 0.44596432106 0.44594631555 0.44591692648 0.4458770153 0.4458286649 0.44577479927 0.44571926889 
0.44566604047 0.44561926045 0.44558420867 0.44556326167 0.44555940017 0.44557358252 0.44560489022 0.44565342537 0.44571579247 
0.44578895959 0.44586946504 0.44595330193 0.44603770681 0.44611988631 0.44619718415 0.44626693069 0.44632795919 0.44637877564 
0.46339068109 0.46350966238 0.46362493214 0.46373323138 0.46383117143 0.46391630912 0.46398735428 0.46404226277 0.4640820418 
0.46410716885 0.46411922387 0.46412064758 0.46411416512 0.46410330329 0.46409044102 0.46407909078 0.46407039688 0.46406650482 
0.4640685027 0.4640762839 0.4640885525 0.46410368671 0.46411960128 0.46413269847 0.46414014331 0.46413924521 0.46412848127 
0.46410551052 0.46407085766 0.46402730892 0.46397699455 0.46392372322 0.46387215345 0.46382640309 0.46379219912 0.46377211236 
0.46376892334 0.46378341868 0.46381545271 0.46386357388 0.4639249193 0.4639956707 0.46407208065 0.46414987736 0.46422621776 
0.46429869201 0.46436422534 0.46442083446 0.46446824255 0.46450484111 0.48094543289 0.48106273776 0.48117672466 0.4812837397 
0.48138123347 0.4814659225 0.48153646979 0.48159088866 0.48163004045 0.48165418089 0.48166486589 0.48166456788 0.48165607492 
0.48164309728 0.48162838236 0.48161481357 0.48160505315 0.48160045388 0.48160273224 0.48161194775 0.48162665016 0.48164532774 
0.48166599921 0.48168466044 0.48169789045 0.48170333427 0.48169844971 0.48168094855 0.48165190117 0.48161277851 0.48156587662 
0.48151512942 0.48146556835 0.48142141741 0.48138806821 0.48136912354 0.48136646092 0.48138166987 0.48141410559 0.48146159345 
0.4815215129 0.48158935808 0.48166176556 0.48173349913 0.48180213393 0.48186540334 0.48192002027 0.48196478975 0.48199974653 
0.48202356452 0.49776888636 0.49788235444 0.49799265675 0.49809626922 0.49819053214 0.49827313278 0.49834138451 0.49839418401 
0.4984318261 0.49845440111 0.49846386924 0.49846231105 0.49845263085 0.49843875991 0.49842299794 0.49840891669 0.4983989743 
0.49839485088 0.49839763688 0.49840841709 0.49842537992 0.49844694194 0.49847098708 0.49849406148 0.49851202778 0.49852237097 
0.49852210231 0.49850970492 0.49848532403 0.49845020951 0.49840686254 0.49835926796 0.49831199712 0.49826990879 0.49823833003 
0.49822048299 0.4982187032 0.49823416678 0.49826643721 0.49831329961 0.49837099444 0.49843577571 0.49850350057 0.49856945243 
0.49863078748 0.49868536914 0.49873001042 0.49876475 0.49878897879 0.49880207334 0.51374231036 0.51384975713 0.51395392023 
0.51405183151 0.51414111646 0.51421951093 0.5142840969 0.51433412195 0.51436937732 0.51439035833 0.51439865848 0.5143964726 
0.51438656834 0.51437286491 0.5143575544 0.51434407959 0.51433491186 0.51433199262 0.51433616821 0.51434831937 0.51436678114 
0.51439061092 0.51441692758 0.51444280582 0.51446411436 0.514477567 0.51448145211 0.51447274162 0.5144526169 0.51442109178 
0.51438156295 0.51433724282 0.51429304884 0.51425357957 0.51422401614 0.51420743113 0.51420678592 0.51422250843 0.51425420716 
0.51429943602 0.51435443982 0.51441573526 0.51447852274 0.51453890703 0.51459313 0.51463987155 0.51467603677 0.51470191413 
0.51471692349 0.51472148693 0.52876442834 0.52886355832 0.52895978728 0.52905030751 0.52913288245 0.52920495607 0.52926513728 
0.52931138566 0.52934391682 0.52936328697 0.52937072666 0.52936855236 0.52935970863 0.52934689716 0.52933307525 0.52932149554 
0.52931424835 0.52931285469 0.52931875216 0.52933211436 0.52935199442 0.52937682113 0.52940436009 0.52943153691 0.52945407937 
0.52946992827 0.52947632995 0.52947073626 0.52945375366 0.52942618404 0.52939025997 0.52934961037 0.52930894432 0.52927271641 
0.52924545733 0.5292308143 0.52923105607 0.52924664776 0.52927723193 0.52932022016 0.52937226477 0.52942897179 0.52948643438 
0.52954133687 0.5295891352 0.52962864773 0.52965752884 0.52967597937 0.52968401723 0.52968199049 0.54275429616 0.54284351434 
0.5429303007 0.54301187191 0.54308662215 0.54315175109 0.5432058871 0.54324833168 0.543277742 0.54329548116 0.54330253621 
0.54330117558 0.54329381423 0.54328306284 0.54327181104 0.54326299533 0.54325825249 0.5432590912 0.54326669421 0.54328108763 
0.54330149352 0.54332648879 0.5433539409 0.54338097682 0.54340398874 0.54342066087 0.54342835792 0.54342494519 0.54341079987 
0.54338622174 0.54335457203 0.54331796301 0.54328122091 0.54324854943 0.54322416761 0.54321127621 0.54321228695 0.54322765904 
0.54325663127 0.54329692104 0.54334500724 0.54339699738 0.54344903445 0.54349778465 0.54353958631 0.54357288464 0.54359554921 
0.54360802999 0.5436106095 0.54360355807 0.55565233589 0.55573043156 0.55580684278 0.55587870021 0.55594470672 0.55600233165 
0.55605038833 0.55608824952 0.55611477937 0.55613103885 0.55613821053 0.55613819792 0.55613280716 0.55612496502 0.55611693277 
0.5561112739 0.55610926514 0.55611269322 0.55612184204 0.55613695507 0.55615749929 0.55618186678 0.55620822774 0.55623379867 
0.55625636642 0.55627272136 0.55628092478 0.55627890869 0.55626695141 0.55624594957 0.55621800214 0.55618563021 0.55615308772 
0.55612412734 0.55610274716 0.55609202007 0.556093673 0.55610837828 0.55613519624 0.55617205285 0.55621597134 0.55626270345 
0.55630890595 0.55635141326 0.55638770256 0.55641503453 0.5564328131 0.55644061197 0.55643889038 0.55642871227 0.56741898804 
0.56748602974 0.56755154295 0.56761335532 0.56767041492 0.56772041858 0.56776240912 0.56779534707 0.5678194014 0.5678346477 
0.5678420881 0.56784370865 0.56784079894 0.56783636658 0.56783187956 0.56782965712 0.56783061546 0.5678363033 0.56784687206 
0.56786268796 0.56788239049 0.56790568069 0.56793018754 0.56795391218 0.56797476587 0.56798996683 0.56799789166 0.56799670933 
0.56798688926 0.56796898456 0.56794446862 0.56791670112 0.56788853549 0.56786361383 0.56784509515 0.56783639515 0.56783845098 
0.56785216413 0.56787645401 0.56790956686 0.5679486628 0.56798965988 0.56802998065 0.56806684286 0.56809725795 0.56811975369 
0.56813283275 0.56813714406 0.56813257939 0.56812029911 0.5780343261 0.57809023196 0.57814519284 0.57819731987 0.57824567675 
0.57828837978 0.57832439781 0.57835325009 0.57837448292 0.57838925274 0.57839722089 0.57840058958 0.5784005878 0.57839941088 
0.57839839407 0.57839948628 0.57840336969 0.57841098134 0.57842268928 0.57843867787 0.57845754265 0.57847910846 0.57850117 
0.57852274084 0.57854131887 0.57855515068 0.57856228275 0.57856173507 0.57855359432 0.57853852909 0.57851770198 0.57849433568 
0.57847002534 0.57844918404 0.57843367593 0.57842675647 0.57842911104 0.57844141272 0.5784629857 0.57849197666 0.57852592944 
0.57856108155 0.57859564512 0.57862669724 0.57865168741 0.57866962268 0.57867897766 0.57868013159 0.57867354474 0.57865982082 
0.58749384843 0.58753943897 0.58758462351 0.58762772895 0.58766793571 0.58770387832 0.58773464052 0.58775977069 0.58777896109 
0.58779281692 0.58780203785 0.58780704738 0.58780959505 0.58781152179 0.58781382568 0.58781787139 0.58782413301 0.58783352869 
0.58784603534 0.58786173527 0.58787938481 0.58789869719 0.5879190784 0.58793811862 0.58795434448 0.58796638536 0.58797262788 
0.58797238716 0.58796587336 0.58795333024 0.58793618423 0.58791620476 0.58789639873 0.58787914651 0.5878664648 0.5878609136 
0.58786341617 0.58787434666 0.58789289271 0.58791762281 0.58794625199 0.58797598897 0.58800471469 0.58802989253 0.58804981737 
0.58806344052 0.58806941235 0.58806798653 0.58805950094 0.58804486323 0.59580561467 0.59584215324 0.59587849331 0.59591359097 
0.59594669647 0.59597657225 0.59600285639 0.5960247403 0.5960422246 0.59605524272 0.59606567247 0.59607250265 0.59607751894 
0.59608198015 0.59608706693 0.59609362518 0.59610194435 0.59611262991 0.59612554465 0.59614066755 0.59615740682 0.59617468995 
0.59619249098 0.59620928258 0.59622344073 0.5962334812 0.59623928717 0.59623924596 0.59623415153 0.59622395496 0.59620999693 
0.59619361965 0.59617779517 0.5961636412 0.59615351132 0.59614924654 0.59615166719 0.59616088351 0.59617633129 0.59619696892 
0.59622039514 0.59624477772 0.59626779218 0.59628764587 0.59630278636 0.59631201049 0.5963147324 0.59631111234 0.5963010108 
0.59628536233 0.60298706477 0.60301563455 0.6030442915 0.60307247342 0.60309954107 0.60312441798 0.60314671839 0.60316599636 
0.60318219312 0.60319542159 0.60320612449 0.60321453406 0.60322164882 0.60322830928 0.60323551001 0.60324399956 0.60325398753 
0.60326554002 0.60327859093 0.6032931833 0.60330824903 0.60332405554 0.60333978539 0.60335429363 0.60336654937 0.603375603 
0.60338058129 0.60338095837 0.60337695857 0.60336915334 0.60335808575 0.603345195 0.60333224611 0.60332126723 0.60331364712 
0.60331005261 0.60331215634 0.60331978662 0.60333225734 0.60334885829 0.60336743071 0.6033866075 0.60340424038 0.603419167 
0.60342943297 0.6034346604 0.60343428161 0.60342809387 0.60341633813 0.60339943053 0.60905997183 0.60908172317 0.60910428215 
0.6091269553 0.60914891664 0.60916953616 0.60918890023 0.60920605157 0.60922122923 0.60923437878 0.60924532082 0.60925547478 
0.60926423012 0.60927270965 0.60928164538 0.60929172464 0.60930241442 0.60931450781 0.60932768048 0.60934156135 0.6093553569 
0.60936990714 0.60938349418 0.60939605039 0.6094069319 0.6094149277 0.60941961321 0.60942038427 0.60941782265 0.60941211085 
0.60940357042 0.60939381487 0.60938357651 0.60937533458 0.60936950734 0.60936669545 0.60936839263 0.60937436099 0.60938410035 
0.60939666937 0.60941090027 0.60942520494 0.60943788097 0.60944770652 0.6094535868 0.6094546955 0.60945128821 0.60944232782 
0.60942853487 0.60941022705 0.61404864307 0.61406491522 0.61408262852 0.61410077059 0.6141187463 0.61413632785 0.61415333575 
0.6141688795 0.61418366243 0.61419650382 0.61420804125 0.61421931412 0.6142293739 0.61423925062 0.61424948951 0.61426057391 
0.61427184134 0.61428396626 0.6142970474 0.61430980287 0.61432287077 0.61433597766 0.61434849597 0.61435931937 0.61436906667 
0.61437652497 0.61438097125 0.61438240055 0.61438118446 0.61437750607 0.61437143727 0.61436443848 0.61435698093 0.61435067384 
0.6143462545 0.61434412898 0.61434539862 0.61434981542 0.61435694056 0.61436606205 0.61437598926 0.61438571125 0.61439381158 
0.61439893451 0.61440067233 0.61439770869 0.61439063464 0.61437894442 0.61436260044 0.61434222223 0.61797704283 0.61798900904 
0.61800279936 0.6180175318 0.61803238983 0.61804772136 0.61806318959 0.61807803065 0.61809190672 0.61810489554 0.61811699708 
0.61812877602 0.61814046663 0.61815120548 0.61816230189 0.6181740817 0.61818569071 0.6181977264 0.61821023943 0.61822244783 
0.61823465093 0.61824658226 0.61825780769 0.61826769145 0.61827650087 0.61828377311 0.61828861848 0.61829091414 0.61829091822 
0.61828924027 0.61828564149 0.61828095223 0.61827584026 0.61827127061 0.6182682169 0.61826667976 0.61826746903 0.6182703524 
0.61827510325 0.61828099316 0.61828707481 0.61829246532 0.61829604408 0.61829678925 0.61829454347 0.61828742404 0.61827667608 
0.61826165146 0.61824229548 0.61821906408 0.62086599202 0.62087490769 0.62088572153 0.62089785453 0.62091065843 0.62092444325 
0.62093853245 0.62095276785 0.62096658683 0.62097984408 0.62099253938 0.62100509735 0.62101768392 0.6210293063 0.62104093468 
0.62105304049 0.62106483231 0.62107659289 0.62108852258 0.6210999245 0.62111153196 0.62112244707 0.62113302583 0.62114245867 
0.62115066623 0.62115778549 0.62116304861 0.62116652915 0.62116820954 0.62116817469 0.62116684243 0.62116441696 0.62116164805 
0.62115886903 0.62115678145 0.62115595675 0.62115594574 0.62115750068 0.62115997457 0.62116263502 0.62116516202 0.62116664024 
0.62116601767 0.62116249843 0.62115597469 0.62114440122 0.62112994802 0.62111123335 0.62108811584 0.62106136926 0.62273264935 
0.62273911006 0.62274763327 0.62275806788 0.62276950151 0.62278223699 0.62279601766 0.62280964435 0.62282370892 0.62283763206 
0.62285099445 0.62286410805 0.62287751607 0.62288979125 0.62290179674 0.6229139934 0.62292570478 0.62293711604 0.62294819629 
0.62295930453 0.62297026786 0.62298047335 0.62299044629 0.62299967909 0.62300804763 0.62301519604 0.62302124748 0.62302599864 
0.6230292868 0.62303152484 0.62303218206 0.62303186361 0.62303117202 0.62303017973 0.62302898889 0.62302849894 0.62302808113 
0.62302829924 0.62302857722 0.62302833884 0.62302747312 0.62302513509 0.62302047494 0.62301301123 0.62300155541 0.62298586639 
0.62296690516 0.62294368984 0.62291636361 0.62288520772 0.62358840765 0.62359314614 0.62360011516 0.6236092675 0.62362004705 
0.62363229339 0.62364561224 0.6236597212 0.62367432958 0.62368897448 0.62370316684 0.62371695602 0.62373085137 0.62374388706 
0.62375624945 0.62376815573 0.62377962106 0.62379069904 0.62380124498 0.62381175802 0.62382163048 0.62383188417 0.62384142438 
0.62385069717 0.62385929551 0.623867276 0.62387452843 0.62388055928 0.62388574626 0.62389012534 0.62389297559 0.62389485552 
0.623896069 0.62389683664 0.62389638108 0.62389622356 0.62389540495 0.62389432943 0.6238924318 0.62388955489 0.62388539071 
0.62387926411 0.62387054977 0.62385847389 0.62384261309 0.62382224854 0.62379815776 0.62377005909 0.62373749719 0.62370089075 
0.62343914396 0.62344267719 0.62344832164 0.62345654836 0.62346700902 0.6234792534 0.62349301787 0.62350782538 0.62352328757 
0.62353896036 0.62355408004 0.62356890585 0.62358331378 0.62359670753 0.62360941205 0.62362091071 0.62363204323 0.62364255587 
0.62365257883 0.62366241346 0.62367189397 0.62368166013 0.62369136672 0.62370075219 0.62371007725 0.62371933442 0.62372777361 
0.6237355674 0.62374299448 0.62374962327 0.62375489127 0.62375910085 0.62376223719 0.62376452108 0.62376520769 0.62376513471 
0.62376399099 0.62376141275 0.62375742515 0.62375190331 0.62374440599 0.62373428681 0.6237210895 0.62370478916 0.62368391445 
0.62365844429 0.62362855853 0.62359442738 0.62355574912 0.62351260149 0.62228401919 0.62228662887 0.62229145022 0.62229903977 
0.62230977703 0.6223223892 0.62233688487 0.62235289342 0.62236964551 0.62238649816 0.62240300863 0.62241862277 0.62243361715 
0.62244739912 0.62246003108 0.62247135843 0.62248199088 0.62249156888 0.62250124936 0.62251025866 0.62251978359 0.62252919178 
0.62253883061 0.62254900976 0.62255946376 0.62256996438 0.62258061164 0.62259051679 0.62259997829 0.62260946835 0.62261737026 
0.6226241891 0.62262924944 0.62263292773 0.62263480026 0.62263500612 0.62263314058 0.62262913802 0.62262310488 0.62261486184 
0.62260375018 0.62258933059 0.62257171794 0.62255033353 0.62252395475 0.6224927822 0.62245611431 0.62241502007 0.62236894797 
0.62231803757 0.62011651837 0.62011819375 0.62012235532 0.62013008974 0.62014084264 0.62015426136 0.62017003689 0.62018760743 
0.6202060102 0.62022452384 0.62024243972 0.62025913393 0.62027479729 0.62028887091 0.62030141519 0.62031233295 0.62032238369 
0.62033118819 0.6203398636 0.62034855745 0.62035763903 0.62036711459 0.62037708542 0.62038810612 0.62040002284 0.62041234946 
0.62042534234 0.62043871261 0.62045034796 0.62046284605 0.62047373867 0.6204832707 0.62049060168 0.62049592176 0.62049885239 
0.62049907489 0.62049661791 0.62049101837 0.62048285481 0.62047147273 0.62045646445 0.62043756969 0.62041486383 0.62038775339 
0.62035502892 0.62031689835 0.62027277868 0.62022344867 0.62016840121 0.62010833336 0.61692380422 0.61692452906 0.61692857613 
0.61693609577 0.61694747419 0.61696213988 0.61697958954 0.61699908231 0.61701964974 0.61704011334 0.61705961743 0.61707758106 
0.61709400304 0.61710829515 0.61712065126 0.6171310597 0.61714011258 0.61714813913 0.61715585561 0.61716386074 0.61717260513 
0.61718224762 0.61719278215 0.6172049095 0.61721883685 0.61723357429 0.61724956188 0.61726602125 0.61728159501 0.61729696296 
0.61731141637 0.61732400772 0.61733404423 0.61734111172 0.61734499718 0.61734536816 0.61734216528 0.61733515116 0.61732403722 
0.61730921288 0.61728969957 0.6172659734 0.61723738568 0.6172036694 0.61716358715 0.61711738371 0.61706417559 0.61700515048 
0.61693984992 0.61686872657 0.61268805549 0.6126880633 0.61269140312 0.61269924795 0.61271138331 0.61272773429 0.61274733684 
0.61276943244 0.6127924367 0.61281527595 0.61283684002 0.61285620681 0.61287319432 0.61288799294 0.61289978182 0.61290937397 
0.61291724625 0.61292423612 0.61293077264 0.61293810055 0.61294650534 0.61295638334 0.61296790834 0.61298181477 0.61299770485 
0.61301584601 0.6130350818 0.61305540114 0.61307554917 0.61309483424 0.61311309956 0.61312912084 0.61314188946 0.61315099984 
0.6131558653 0.61315639354 0.613152323 0.61314334534 0.61312927171 0.61311029412 0.613086114 0.61305654301 0.61302112999 
0.6129797141 0.61293101174 0.61287511865 0.61281152776 0.61274112121 0.61266371383 0.61258001767 0.60738759237 0.60738636186 
0.60738933957 0.60739766368 0.60741116053 0.60742950187 0.60745177834 0.60747669081 0.60750284405 0.60752846881 0.60755217926 
0.60757317184 0.60759103564 0.60760576092 0.60761697065 0.60762546918 0.60763201818 0.60763724891 0.60764265033 0.60764924679 
0.6076572641 0.60766745918 0.60768045207 0.60769638702 0.60771525266 0.60773675644 0.60776017954 0.60778512341 0.60781016205 
0.60783415808 0.60785705672 0.60787687012 0.60789278184 0.60790421474 0.60791017358 0.60791075655 0.60790564911 0.60789448891 
0.60787725272 0.60785356304 0.60782374909 0.60778737273 0.60774399812 0.60769366859 0.60763478862 0.60756767398 0.60749177995 
0.60740805313 0.60731694653 0.60721864906 0.60099787737 0.60099544206 0.60099818627 0.60100710173 0.60102229498 0.60104318021 
0.60106841253 0.6010967319 0.60112650514 0.60115530674 0.60118162833 0.60120447103 0.6012232276 0.60123783109 0.60124818536 
0.60125524778 0.60125993046 0.60126345 0.60126755611 0.60127291854 0.60128068364 0.60129147828 0.60130603123 0.60132468744 
0.60134687144 0.60137232172 0.60140099955 0.60143136389 0.60146186909 0.60149165965 0.60151911216 0.60154355087 0.60156297479 
0.60157633682 0.60158379072 0.60158434506 0.60157807634 0.60156425335 0.60154320606 0.60151451499 0.60147812664 0.60143416631 
0.60138157771 0.60132080131 0.60125021347 0.60116999074 0.60107988855 0.60098118572 0.60087466098 0.6007606684 0.59349438259 
0.59349094065 0.59349354779 0.59350335464 0.59352053831 0.5935442713 0.59357335451 0.59360595137 0.59363920649 0.59367176964 
0.59370106704 0.59372593062 0.59374562988 0.59375995956 0.5937695466 0.59377452253 0.59377684853 0.59377849506 0.59378081059 
0.59378501079 0.59379257594 0.59380444076 0.59382106539 0.5938423848 0.59386852729 0.59389901305 0.59393329796 0.59396963319 
0.59400631047 0.5940423826 0.59407509306 0.59410401175 0.59412730096 0.59414337074 0.59415201883 0.59415258722 0.59414468398 
0.59412803886 0.5941029377 0.59406830593 0.59402490192 0.59397195558 0.59390918902 0.59383655494 0.59375256319 0.59365759529 
0.59355218922 0.59343637165 0.59331274082 0.59318132908 0.58485520408 0.58485099099 0.58485364193 0.58486467931 0.58488407109 
0.58491111242 0.58494443219 0.58498140608 0.58501940477 0.58505592763 0.58508853153 0.58511561454 0.58513618566 0.58515038944 
0.58515857517 0.5851615888 0.58516161544 0.58516082418 0.58516122767 0.58516449251 0.58517180434 0.58518486789 0.585203625 
0.58522832471 0.58525903333 0.58529513108 0.58533522641 0.58537819481 0.58542167357 0.58546414818 0.5855030834 0.58553633941 
0.58556346386 0.58558230726 0.58559212883 0.58559236447 0.5855827626 0.58556289461 0.58553315994 0.58549257056 0.58544102635 
0.58537863504 0.58530439764 0.58521860286 0.58511960053 0.58500900637 0.58488631896 0.58475244843 0.58461048994 0.5844605701 
0.57506438535 0.57505969446 0.57506278975 0.57507516766 0.57509733262 0.57512826278 0.57516620105 0.57520806953 0.57525112001 
0.57529166022 0.57532789064 0.57535735844 0.57537896316 0.57539299442 0.57539975873 0.575400941 0.575398539 0.57539540937 
0.57539378674 0.57539600501 0.57540343746 0.57541741186 0.57543878909 0.57546738922 0.57550302584 0.57554490151 0.57559146565 
0.57564109374 0.57569170441 0.57574052159 0.57578496846 0.57582321438 0.57585437965 0.575875515 0.57588639684 0.57588621234 
0.57587444715 0.57585132316 0.57581654455 0.57576927493 0.57570951402 0.5756369055 0.57555051425 0.57545048731 0.57533624516 
0.57520839637 0.57506747567 0.57491485984 0.57475377653 0.57458506872 0.56411553927 0.56411059165 0.56411451003 0.56412883865 
0.5641540819 0.56418908411 0.56423197663 0.5642789858 0.56432714792 0.56437233319 0.56441223342 0.56444447196 0.56446739345 
0.56448136903 0.56448700882 0.5644860286 0.56448153342 0.5644761954 0.56447274925 0.56447406907 0.56448149853 0.56449688783 
0.56452086136 0.56455350805 0.56459430387 0.56464202877 0.5646949644 0.56475098747 0.56480851695 0.56486336306 0.56491345481 
0.56495661396 0.56499055178 0.56501401277 0.56502557496 0.56502489084 0.56501086231 0.56498411099 0.5649441344 0.56489008634 
0.56482179152 0.56473843623 0.5646395614 0.56452538114 0.56439507655 0.56424974445 0.56409047187 0.56391902799 0.56373889072 
0.56355185534 0.55201537981 0.55201080263 0.55201604772 0.55203275755 0.55206130945 0.55210068729 0.55214838889 0.55220075045 
0.55225400889 0.55230425244 0.55234780817 0.55238281555 0.55240729337 0.55242191206 0.5524267051 0.55242453245 0.55241796814 
0.55241082019 0.55240614836 0.55240646456 0.55241428981 0.55243111833 0.55245788855 0.55249418716 0.55253971801 0.55259298179 
0.55265182395 0.55271412469 0.55277731304 0.55283776585 0.55289253505 0.5529396064 0.55297630106 0.55300137746 0.55301331932 
0.55301180751 0.5529953287 0.5529651208 0.55291962602 0.55285874661 0.55278173501 0.55268785828 0.55257675072 0.55244856149 
0.55230257408 0.55214035455 0.55196334338 0.55177412795 0.5515758935 0.55137182032 0.53878736337 0.53878383703 0.53879097668 
0.53881026083 0.53884259187 0.5388863555 0.53893888893 0.53899640666 0.53905467495 0.53910960235 0.53915705263 0.53919499951 
0.53922169082 0.53923717826 0.5392421216 0.5392393309 0.53923168357 0.53922365331 0.53921781595 0.5392180161 0.53922611364 
0.53924451005 0.53927358205 0.53931321448 0.5393627575 0.53942053176 0.53948445424 0.53955160302 0.53961948564 0.53968436209 
0.53974294961 0.53979297826 0.5398319155 0.53985755036 0.53986932447 0.5398664994 0.53984768858 0.53981345518 0.53976296495 
0.53969513634 0.53960962168 0.53950587706 0.53938322212 0.53924197255 0.53908156686 0.53890397626 0.53871091822 0.53850563258 
0.53829149156 0.53807255098 0.5244747312 0.52447295401 0.52448247551 0.52450505989 0.52454098002 0.52458887013 0.52464615405 
0.52470835932 0.52477141369 0.52483074953 0.52488254603 0.52492332744 0.52495264096 0.52496986142 0.52497583856 0.52497347349 
0.52496613777 0.52495765124 0.52495180234 0.52495220487 0.52496091988 0.52498053036 0.5250113352 0.52505340644 0.52510589421 
0.52516697026 0.52523442219 0.52530491816 0.52537585583 0.52544353786 0.5255045793 0.52555618502 0.52559591915 0.52562202937 
0.52563290895 0.52562785064 0.52560658433 0.52556861022 0.52551295753 0.52543865513 0.52534553237 0.52523296489 0.52509969669 
0.52494697906 0.52477404092 0.5245835169 0.52437703266 0.52415837629 0.5239315704 0.52370106276 0.50914167858 0.50914239132 
0.50915490678 0.50918095407 0.50922066059 0.50927250206 0.50933356134 0.50940026861 0.50946755938 0.50953119486 0.50958682757 
0.50963133856 0.50966376802 0.50968351582 0.50969193959 0.50969131546 0.5096851997 0.50967744461 0.50967240813 0.50967342607 
0.50968283727 0.50970327529 0.50973530943 0.50977865379 0.50983247676 0.50989493449 0.50996393293 0.51003578786 0.5101079681 
0.51017681023 0.51023838757 0.51029002991 0.51032973666 0.51035491465 0.51036427167 0.51035697454 0.51033299648 0.51029094811 
0.51023053189 0.51015087735 0.51005068555 0.50993011524 0.50978838993 0.50962614349 0.50944339773 0.50924291461 0.50902646742 
0.50879831214 0.50856271262 0.5083241078 0.49287423205 0.49287792053 0.49289384942 0.49292346373 0.4929668597 0.49302232276 
0.4930870943 0.49315736089 0.49322836072 0.49329568462 0.49335529615 0.49340396459 0.49344000738 0.49346357337 0.49347507879 
0.49347751842 0.49347422455 0.49346856115 0.49346510823 0.49346719753 0.493477666 0.49349811783 0.49353019992 0.49357326822 