# vtk DataFile Version 5.1
vtk output
ASCII
DATASET STRUCTURED_POINTS
DIMENSIONS 20 20 20
SPACING 0.005 0.005 0.005
ORIGIN 0.2189 -0.051172 0.02882
POINT_DATA 8000
FIELD FieldData 1
potential 1 8000 double
0.00045145478548 0.00044631347967 0.00044132695051 0.00043650484682 0.0004318631845 0.0004273895266 0.00042305365425 0.00041881915607 0.00041466280091 
0.0004105770126 0.00040656829117 0.00040264519048 0.00039881289403 0.00039507027356 0.00039141358498 0.00038783705858 0.00038433228549 0.00038089372175 
0.00037751753603 0.00037419521433 0.00045554468505 0.00045030409333 0.00044521463069 0.00044028984996 0.00043554835527 0.00043098207675 0.00042656383855 
0.00042225821805 0.00041803858919 0.00041389696412 0.00040983574108 0.00040586376505 0.00040198657083 0.00039820405527 0.00039451009113 0.00039089622673 
0.00038735283899 0.00038387061827 0.00038044670549 0.00037707613431 0.00045826362078 0.00045295070097 0.00044778484571 0.00044278167099 0.00043796285289 
0.00043332498961 0.00042884333439 0.0004244843669 0.00042021928773 0.00041603611674 0.00041193467828 0.00040792309429 0.00040400822348 0.00040018968887 
0.00039646371338 0.00039281690824 0.00038923624909 0.0003857117075 0.00038224097037 0.00037882357805 0.00045950766546 0.00045415165227 0.00044893977287 
0.00044388771659 0.00043902000728 0.00043433558943 0.00042981267804 0.00042541849554 0.00042112269145 0.00041691047574 0.00041277893315 0.00040873685655 
0.00040479165775 0.00040094377259 0.00039718793533 0.00039351048967 0.00038989557884 0.00038633395542 0.00038282298512 0.00037936621566 0.00045957713341 
0.00045420498726 0.00044897069536 0.00044390578768 0.00043901418959 0.00043430487981 0.00042975735158 0.00042534020888 0.00042102183168 0.00041678737339 
0.00041263376314 0.00040856705599 0.00040459614859 0.00040072070992 0.00039693533261 0.00039322711769 0.00038958093586 0.00038598894301 0.00038244755697 
0.00037896270714 0.00045903971517 0.00045367208919 0.00044844187722 0.00044337755455 0.00043848180735 0.00043375975299 0.00042919435132 0.00042475703705 
0.00042041751678 0.00041616237375 0.00041198769823 0.00040789897684 0.00040390263547 0.00039999818611 0.00039618120914 0.00039244021625 0.00038876442855 
0.00038514603048 0.00038158246293 0.00037807872919 0.00045849748324 0.00045314207359 0.00044792398457 0.0004428681192 0.00043797180061 0.00043324047496 
0.00042865655041 0.00042419342511 0.00041982782448 0.00041554771374 0.00041134945839 0.00040723650754 0.00040321179041 0.00039927564621 0.0003954239747 
0.00039164846084 0.00038794269543 0.00038429959977 0.00038071729066 0.0003771973886 0.00045840231665 0.0004530570686 0.00044785089965 0.00044279965118 
0.00043789698498 0.00043314703067 0.00042853546231 0.00042403983271 0.00041964205107 0.0004153272837 0.00041109905715 0.00040695607466 0.00040289891593 
0.00039892774549 0.00039503898426 0.00039122846888 0.00038749072097 0.00038382106043 0.00038021777173 0.00037668065413 0.00045901147988 0.00045367214571 
0.00044846666007 0.00044340186831 0.00043848953279 0.00043370891238 0.00042905644884 0.00042451558959 0.00042007255928 0.0004157182292 0.00041145100666 
0.00040727117834 0.00040317667204 0.00039916730244 0.00039523997032 0.00039139251207 0.00038762071215 0.00038392039716 0.00038029074636 0.00037672917781 
0.00046042789171 0.00045509004431 0.00044987887836 0.00044479625487 0.00043984967706 0.00043502257385 0.00043031523972 0.00042571573905 0.00042121692317 
0.00041681194897 0.00041249907363 0.00040827491804 0.00040413814916 0.00040008700935 0.00039611946253 0.00039223259203 0.00038842229756 0.00038468730228 
0.00038102384008 0.00037743012072 0.00046267738608 0.00045733811694 0.00045211552551 0.00044700328073 0.00044200952236 0.00043711972538 0.00043234049996 
0.00042766875002 0.00042310401416 0.00041863740051 0.00041427040706 0.00040999718149 0.00040581423014 0.00040171749521 0.00039770557559 0.00039377603578 
0.00038992399206 0.00038614820208 0.00038244500511 0.00037881188385 0.00046575534744 0.00046041102366 0.00045516886076 0.00045001830804 0.00044496593957 
0.00043999981097 0.00043513573189 0.00043037978774 0.00042573528009 0.00042119958927 0.00041677274868 0.00041244439698 0.00040821140256 0.0004040675442 
0.00040000924127 0.00039603227853 0.00039213457581 0.0003883119574 0.00038456223184 0.00038088311779 0.00046965253656 0.00046429402824 0.00045902120901 
0.00045382061079 0.00044869761315 0.00044364472129 0.00043868631645 0.0004338372108 0.00042910717329 0.0004244948994 0.00042000054272 0.00041561421098 
0.00041132991361 0.00040713713593 0.00040303011239 0.00039900507248 0.00039505619169 0.00039118229186 0.00038738078211 0.00038364896026 0.00047434538739 
0.00046895518999 0.00046363537213 0.00045836986224 0.00045316598647 0.00044801960444 0.00044296263779 0.00043801661042 0.00043319549157 0.0004285026155 
0.00042393720763 0.00041949084067 0.00041515297402 0.0004109121981 0.00040675982737 0.00040268392639 0.00039868306381 0.0003947529962 0.00039089380489 
0.00038710409733 0.00047976160451 0.00047431341166 0.00046892326853 0.00046357755583 0.00045827605509 0.00045304329544 0.00044788912839 0.00044284676125 
0.00043793411416 0.00043315991134 0.00042852048155 0.00042401316062 0.00041962397303 0.00041533790753 0.00041113896597 0.000407016731 0.00040296097785 
0.00039897241611 0.00039505066293 0.0003911977292 0.00048571092853 0.00048017858164 0.00047469632564 0.00046925579541 0.00046385959864 0.00045853401409 
0.00045328680243 0.00044815295608 0.00044315209543 0.00043829612929 0.00043358487785 0.00042901748031 0.00042457814904 0.00042024881668 0.00041600788452 
0.00041183777323 0.00040772921909 0.00040368147587 0.00039969435489 0.00039577441554 0.00049181191369 0.00048617593295 0.00048058857296 0.0004750463882 
0.00046955601204 0.00046414294177 0.00045881180755 0.00045359553407 0.00044851547572 0.00044358358904 0.00043880543608 0.00043417891589 0.00042968969499 
0.00042531602793 0.00042103310236 0.00041681826348 0.00041265791664 0.00040854964288 0.00040449994809 0.00040051355448 0.00049747930392 0.00049173975285 
0.00048604857136 0.0004804094828 0.00047483204739 0.00046934145271 0.00046393848571 0.000458654646 0.00045350765723 0.0004485121421 0.00044367359669 
0.00043899113832 0.00043445135292 0.0004300310423 0.00042570383605 0.00042144361302 0.00041723561293 0.00041307511347 0.00040896814313 0.00040492236509 
0.00050205247873 0.00049622504745 0.00049044840734 0.00048472916224 0.00047908001145 0.00047352466752 0.00046806534506 0.00046272955299 0.00045753282286 
0.00045248775305 0.00044759911117 0.00044286665886 0.00043827711339 0.00043380788432 0.00042943441509 0.00042513128614 0.00042088227972 0.00041668087464 
0.00041253096713 0.00040843921196 0.00050503260187 0.00049914691202 0.00049331302017 0.00048753974108 0.0004818394597 0.00047623747669 0.00047073515618 
0.00046536092995 0.00046012868545 0.00045504714513 0.00045011796437 0.00044534223441 0.00044070695839 0.00043619260495 0.00043177599663 0.0004274354555 
0.00042315548006 0.00041892748078 0.00041475114987 0.00041063039813 0.00052581801911 0.00051987932477 0.00051410138917 0.00050848022005 0.00050302459552 
0.00049772677325 0.00049256988245 0.00048753272391 0.00048260182329 0.00047776812511 0.00047302955746 0.00046838807921 0.00046384450292 0.00045939739367 
0.00045504303783 0.0004507780249 0.00044659556307 0.00044249038633 0.00043845845801 0.00043449368088 0.00052974999846 0.00052371656491 0.00051784394594 
0.00051212917203 0.00050658324061 0.00050119989 0.00049596397062 0.00049085441427 0.00048585727438 0.00048096182438 0.00047616561649 0.00047146988025 
0.0004668752666 0.00046238038951 0.00045797973646 0.00045366981442 0.00044944291935 0.00044529212405 0.00044121342207 0.00043720314805 0.00053283610369 
0.0005267252627 0.00052077451096 0.00051498172908 0.00050935933379 0.00050390347878 0.00049860042198 0.00049343030616 0.00048837504573 0.0004834262876 
0.00047857958126 0.00047383531042 0.00046919387785 0.00046465352764 0.00046021053675 0.00045585771307 0.00045158702665 0.00044739122299 0.00044326700234 
0.00043921203494 0.00053502258235 0.00052885286877 0.00052284236238 0.00051698977733 0.00051130825733 0.00050579498989 0.0005004372591 0.0004952160978 
0.00049011303134 0.00048511920337 0.00048022785374 0.00047543976538 0.00047075598761 0.00046617378313 0.00046168997464 0.0004572961438 0.0004529829439 
0.00044874498402 0.00044457839728 0.00044048257039 0.00053646859261 0.00053025775257 0.00052419992534 0.00051831167873 0.00051258554202 0.0005070279081 
0.0005016260868 0.00049636215099 0.00049121764671 0.00048618325139 0.00048125234967 0.00047642450111 0.00047170071591 0.00046707828721 0.00046255390884 
0.00045811969208 0.00045376634158 0.00044948945302 0.00044528497093 0.00044115326717 0.00053749101415 0.00053125223257 0.00052516572488 0.00051924762897 
0.00051348966233 0.00050789495218 0.00050245459579 0.00049715136369 0.00049196756333 0.00048689411655 0.00048192491605 0.00047705848576 0.00047229524722 
0.00046763244213 0.0004630673678 0.00045859218149 0.00045420022824 0.00044988616964 0.00044564665487 0.00044148282753 0.0005384483671 0.00053218819974 
0.00052608025367 0.00052013831734 0.00051435190841 0.00050872470481 0.0005032464336 0.0004979020356 0.00049267619204 0.00048756210042 0.00048255267235 
0.00047764603574 0.00047284165376 0.00046813747021 0.00046352986202 0.00045901345968 0.0004545818338 0.00045023147881 0.00044595899182 0.00044176388867 
0.00053964784374 0.00053336966685 0.00052724118487 0.00052127510773 0.00051545762195 0.00050979325215 0.0005042725143 0.00049888332389 0.0004936133889 
0.00048845132268 0.00048339768758 0.00047844826813 0.00047359968941 0.00046885163275 0.00046419961016 0.00045964026142 0.000455168313 0.00045077981933 
0.00044647314826 0.00044224624873 0.00054130418754 0.0005350043873 0.00052885172566 0.00052285609981 0.00051700297574 0.00051129426681 0.00050572324382 
0.00050028111783 0.00049495800059 0.0004897460289 0.00048464228486 0.00047964452472 0.00047474897932 0.00046995368722 0.0004652557521 0.00046065171888 
0.0004561367902 0.0004517077718 0.00044736330046 0.00044310002949 0.00054353640328 0.00053721315147 0.00053103183806 0.0005249919248 0.00051909937368 
0.00051333651636 0.00050770762054 0.00050220381396 0.00049682003292 0.00049155016672 0.00048639177552 0.00048134129775 0.00047639355697 0.00047154903747 
0.00046680226062 0.00046215055471 0.00045759057175 0.00045311749484 0.00044873053509 0.00044442625472 0.00054639991046 0.00054004992283 0.00053383478219 
0.00052774996663 0.00052180220245 0.00051597566608 0.00051027599563 0.0005047008289 0.00049924939264 0.00049391397584 0.00048869525722 0.00048358721716 
0.00047858608408 0.00047368774869 0.0004688900482 0.00046418874992 0.00045957923565 0.00045505900625 0.00045062548245 0.00044627481136 0.00054990997922 
0.00054352678861 0.0005372709788 0.00053113393549 0.00052512281487 0.00051922305735 0.00051344499524 0.00050779060109 0.0005022614243 0.00049685407093 
0.00049157094774 0.00048640130517 0.00048134284798 0.00047639043159 0.00047153939763 0.00046678422581 0.0004621231159 0.00045755078092 0.00045306565728 
0.00044866452091 0.00055405001719 0.00054762697072 0.00054132075017 0.00053512284448 0.00052903995587 0.00052305888107 0.00051719545651 0.00051145608691 
0.00050584557081 0.00050036212622 0.00049500761634 0.00048977350412 0.00048465685265 0.00047964828027 0.0004747416491 0.00046993264831 0.00046521590933 
0.00046058818172 0.00045604792426 0.00045159086121 0.00055877405049 0.00055229892614 0.00054593187038 0.00053966304183 0.00053350069114 0.00052743319371 
0.0005214801233 0.00051565156847 0.00050995632995 0.00050439377381 0.00049896637352 0.00049366679772 0.00048848869316 0.00048342443903 0.00047846296965 
0.00047359805795 0.0004688248852 0.00046413858129 0.00045953888425 0.00045502313011 0.00056398074624 0.00055743980448 0.00055099896007 0.00054465047085 
0.000538393301 0.00053224524846 0.00052620169658 0.0005202849072 0.00051450342985 0.00050886096716 0.00050336018285 0.00049799467832 0.00049275651858 
0.00048763431996 0.00048261812394 0.00047769828291 0.00047286752713 0.00046812214862 0.0004634608424 0.00045888268456 0.00056948912764 0.00056286827062 
0.00055634202053 0.00054990506372 0.00054355909191 0.00053732258251 0.0005311904625 0.00052518652806 0.00051932157485 0.00051360194022 0.00050802716747 
0.00050259650518 0.00049729889332 0.0004921216218 0.00048705162944 0.00048207649881 0.00047718850981 0.00047238458277 0.00046766096318 0.00046301909286 
0.00057501061904 0.00056830068373 0.00056168363181 0.00055515580389 0.00054872121948 0.00054239910162 0.00053618391297 0.00053009885457 0.00052415571736 
0.00051836230789 0.00051271854469 0.00050722417032 0.00050186787827 0.00049663571333 0.00049151301799 0.00048648465949 0.00048154118266 0.0004766773671 
0.00047189398568 0.00046719060877 0.00058017431916 0.00057337519593 0.00056666850302 0.00056005381117 0.00055353620723 0.00054713499254 0.00054084470349 
0.00053468731531 0.00052867437556 0.00052281323502 0.00051710560716 0.00051155042941 0.00050613692435 0.00050085052406 0.00049567547176 0.00049059505086 
0.00048559915264 0.00048068157883 0.00047584155285 0.00047108001625 0.0005846002018 0.00057772116014 0.00057093537545 0.00056424324184 0.00055765301934 
0.00055118191046 0.00054482686228 0.00053860686072 0.0005325333821 0.00052661276571 0.00052084702032 0.00051523487005 0.00050976680233 0.0005044276128 
0.00049920136441 0.00049407239994 0.00048902903603 0.0004840645999 0.00047917722904 0.00047436654613 0.00058801737419 0.00058107479201 0.00057422659476 
0.00056747337388 0.00056082294872 0.00055429374506 0.00054788270391 0.00054160905584 0.00053548277501 0.00052951108066 0.0005236927547 0.00051802870605 
0.00051250904826 0.00050712067818 0.00050184691896 0.00049667392978 0.00049158997198 0.00048658746807 0.00048166172824 0.00047681261915 0.00060065592727 
0.00059389975219 0.00058730096631 0.00058086732027 0.00057459719784 0.00056848547198 0.00056252105051 0.00055669064849 0.00055098546057 0.00054539729847 
0.00053992105667 0.00053455537217 0.00052929802534 0.00052414713247 0.00051909879943 0.00051414969494 0.00050929453659 0.00050452909523 0.0004998481318 
0.00049524746791 0.00060469784038 0.00059783991371 0.00059115327752 0.00058462723767 0.00057826814896 0.00057207098612 0.00056602615325 0.00056011990601 
0.00055434311475 0.00054868693675 0.00054314687005 0.00053771990719 0.00053240460509 0.00052719830874 0.00052209544643 0.00051709451568 0.00051218848518 
0.00050737242456 0.00050264158201 0.00049799303705 0.00060821128886 0.00060126921705 0.00059449929059 0.00058789036312 0.00058145142801 0.00057517701967 
0.00056905869984 0.00056308406502 0.00055724042014 0.00055152123055 0.00054592097353 0.00054043684098 0.00053506564349 0.00052980543291 0.00052465081136 
0.00051959869587 0.00051464231401 0.00050977600174 0.00050499643728 0.0005002999448 0.00061116669683 0.00060415225433 0.00059730975121 0.00059063033553 
0.00058412156953 0.00057777948633 0.00057159551389 0.00056555762413 0.0005596535092 0.00055387669833 0.00054822022535 0.00054268128233 0.00053725701155 
0.00053194409481 0.00052673958807 0.00052163739939 0.00051663147543 0.00051171682355 0.00050688943684 0.00050214731814 0.00061365261434 0.00060657795716 
0.00059966950306 0.00059293683238 0.00058636700944 0.00057996485983 0.00057372212026 0.00056762638783 0.00056166633577 0.00055583499562 0.00055012503346 
0.00054453366862 0.00053905790239 0.00053369410593 0.0005284395273 0.00052328784112 0.00051823386072 0.00051327159276 0.00050839865377 0.00050361288351 
0.00061585469688 0.00060872852523 0.00060176828075 0.00059498382576 0.00058836156026 0.00058190465817 0.00057560647733 0.00056945654062 0.00056344181354 
0.00055755711964 0.000551795118 0.00054615197894 0.00054062483447 0.00053521037622 0.00052990540958 0.0005247044012 0.00051960217516 0.00051459376996 
0.00050967684545 0.00050484903237 0.00061799352387 0.00061082088944 0.00060381454779 0.0005969831413 0.00059031115469 0.00058380338374 0.00057745115316 
0.00057124545619 0.00056517556965 0.00055923656194 0.00055342105938 0.00054772533684 0.00054214556503 0.00053667981456 0.00053132345366 0.00052607290979 
0.00052092233647 0.0005158674123 0.00051090675082 0.00050603713972 0.00062027544289 0.00061306074811 0.00060600992754 0.0005991314713 0.00059240954633 
0.00058584804982 0.00057943950819 0.00057317702698 0.00056705107501 0.00056105251381 0.00055518138105 0.00054943089989 0.00054379705991 0.00053827782684 
0.00053286927773 0.00052756737613 0.00052236731973 0.0005172656808 0.0005122594658 0.00050734668403 0.00062286436932 0.00061560520716 0.00060850830873 
0.00060158065221 0.00059480650555 0.00058818697287 0.00058171829514 0.00057539331102 0.00056920551989 0.00056314687815 0.00055721523716 0.00055140671472 
0.00054571601034 0.00054014144798 0.00053467874795 0.00052932389732 0.00052407268988 0.00051892138365 0.00051386819639 0.00050890938138 0.00062586542865 
0.0006185604584 0.00061141478685 0.00060442623223 0.00059759930405 0.00059091672448 0.0005843823553 0.0005779894682 0.00057173393969 0.00056561004421 
0.00055961591551 0.00055374560082 0.0005479948242 0.00054236266288 0.00053684323868 0.00053143328377 0.00052612880512 0.00052092572584 0.00051582222782 
0.00051081420599 0.0006293364532 0.00062198302662 0.0006147851348 0.00060773647095 0.00060084529163 0.00059409261883 0.00058748385061 0.00058101668592 
0.00057468951798 0.00056849501123 0.00056243315527 0.00055649831474 0.00055068600924 0.00054499260763 0.0005394148944 0.00053394776037 0.00052858730921 
0.00052332989714 0.00051817277057 0.00051311210333 0.00063329790108 0.00062589050649 0.00061863413605 0.00061152148964 0.0006045591785 0.00059773009971 
0.0005910420422 0.00058449513665 0.00057808852988 0.00057181830837 0.00056568680506 0.00055968432388 0.00055380760007 0.00054805263746 0.00054241364272 
0.0005368871316 0.0005314683155 0.0005261529173 0.00052093911149 0.00051582290722 0.00063773234031 0.00063026554062 0.00062294458988 0.00061576042564 
0.00060872148874 0.00060181046902 0.00059503849205 0.00058840746861 0.00058191912757 0.00057557068717 0.00056936383476 0.00056329078265 0.00055734926806 
0.00055153022858 0.00054583005923 0.00054024262992 0.00053476292257 0.00052938769561 0.00052411423497 0.00051893768624 0.0006425898897 0.00063505629233 
0.00062766250118 0.00062040155141 0.00061328001451 0.00060628329027 0.00059942326002 0.0005927053654 0.00058613271943 0.00057970386659 0.00057342106551 
0.00056727617842 0.00056126609419 0.00055538504669 0.00054962199385 0.00054397265857 0.00053843168086 0.00053299369104 0.00052765778802 0.00052242025145 
0.00064777439816 0.000640165563 0.00063269249216 0.00062534839676 0.00061813974353 0.00061105426189 0.00060410563715 0.00059730012727 0.00059064253563 
0.00058413338285 0.00057777367837 0.00057155820096 0.00056547957665 0.00055953214809 0.0005537067611 0.00054799667781 0.00054239353636 0.000536893742 
0.0005314940024 0.00052619280933 0.00065313720293 0.00064544548821 0.00063788614643 0.00063045423528 0.00062314870822 0.0006159832379 0.00060894635636 
0.00060205445148 0.00059531315922 0.00058872537776 0.00058228787307 0.00057600166967 0.00056985733005 0.00056384603948 0.00055795880996 0.00055218574424 
0.00054652085829 0.00054095936018 0.00053549664878 0.00053013103352 0.00065847015212 0.00065069146737 0.00064304358791 0.0006355221595 0.00062812876716 
0.00062087661365 0.00061375503197 0.00060678074405 0.00059995873373 0.00059329386816 0.00058678332891 0.00058042779281 0.00057421723942 0.00056814333261 
0.00056219506866 0.00055636180767 0.00055063630802 0.0005450124625 0.00053948859574 0.00053406104201 0.00066353463286 0.00065566876636 0.00064793385589 
0.00064032645343 0.00063284851291 0.00062551426646 0.00061831308005 0.00061126071316 0.0006043637844 0.00059762589472 0.0005910456535 0.0005846227958 
0.0005783485469 0.00057221318468 0.00056620497263 0.00056031305524 0.0005545294121 0.00054884812687 0.00054326436349 0.00053777723396 0.00066810289344 
0.00066015565771 0.00065233994784 0.00064465215039 0.00063709637064 0.00062968676867 0.0006224116176 0.00061528792106 0.00060832162911 0.0006015156193 
0.00059486933062 0.0005883826349 0.00058204676245 0.00057585158751 0.00056978599317 0.00056383855538 0.00055800045245 0.00055226555146 0.00054662865721 
0.00054108766768 0.00067202016664 0.00066400077629 0.00065611392438 0.00064835591489 0.00064073054871 0.00063325139291 0.00062590947927 0.0006187206949 
0.00061168969664 0.00060482097745 0.00059811233965 0.00059156516415 0.00058517078715 0.00057891845048 0.00057279814704 0.00056679893013 0.0005609112316 
0.00055512832032 0.00054944473677 0.00054385664611 0.00067573481036 0.00066814159888 0.00066071677405 0.0006534634563 0.0006463793876 0.00063945965755 
0.00063269620978 0.00062607930082 0.00061960327946 0.00061325993541 0.0006070445675 0.00060095340565 0.00059498272669 0.00058912975484 0.00058339020607 
0.00057776192217 0.00057223871969 0.00056681678761 0.00056149183772 0.00055625963898 0.00068003700192 0.00067233807642 0.00066482118522 0.00065747251841 
0.00065029647971 0.00064328762426 0.00063643923404 0.00062974100693 0.0006231872279 0.00061676950941 0.00061048294305 0.00060432320502 0.00059828721902 
0.00059237099877 0.00058656976679 0.000580881847 0.00057530112959 0.00056982322041 0.00056444325494 0.00055915815426 0.00068400992933 0.00067621804559 
0.00066861073386 0.00066117319501 0.00065391057852 0.00064681793255 0.00063988867746 0.00063311440946 0.00062648499732 0.00061999571941 0.00061364028391 
0.00060741434912 0.00060131387443 0.00059533577325 0.00058947412132 0.00058372748297 0.00057808943702 0.00057255524385 0.0005671205147 0.00056178297158 
0.00068763542297 0.00067975982422 0.00067206854011 0.00066454933654 0.00065720663359 0.00065003599001 0.00064303075114 0.00063618311793 0.00062948291348 
0.00062292484852 0.00061650315702 0.00061021253762 0.00060404942011 0.00059800919588 0.00059208930825 0.00058628428727 0.00058058930885 0.00057499955733 
0.00056951113356 0.0005641215012 0.0006909671709 0.0006830148514 0.0006752487126 0.00066765397522 0.00066023691884 0.00065299356429 0.00064591710784 
0.0006389990733 0.00063223069324 0.00062560663207 0.00061912006577 0.00061276629094 0.00060654120076 0.00060044052643 0.00059446152851 0.00058859813355 
0.00058284701805 0.00057720224923 0.00057166095242 0.00056622031736 0.00069411653159 0.00068609349657 0.0006782505716 0.00067059421727 0.00066310808235 
0.00065579474919 0.00064864913488 0.00064166348264 0.00063482796064 0.0006281385325 0.00062158763344 0.00061517086404 0.00060888433059 0.00060272315422 
0.00059668472255 0.00059076399963 0.00058495621524 0.00057925661579 0.00057366275128 0.00056817154834 0.00069722249743 0.00068913285482 0.00068122455583 
0.00067350228469 0.00066594986083 0.00065856976091 0.000651356563 0.00064430226065 0.00063739944621 0.00063064400112 0.00062402858547 0.00061754835234 
0.00061119872507 0.00060497695027 0.00059887830426 0.00059289923309 0.00058703455037 0.0005812799153 0.00057563317316 0.00057009102426 0.00070042449079 
0.00069227224648 0.00068429959846 0.00067651226396 0.00066889287452 0.00066144537292 0.00065416344876 0.00064704050816 0.00064006795664 0.00063324482761 
0.00062656291493 0.0006200175902 0.00061360458959 0.00060732030118 0.00060116086669 0.00059512244938 0.00058919964574 0.00058338955747 0.00057768850533 
0.0005720941864 0.00070384170852 0.00069562495389 0.00068758770176 0.00067973535167 0.00067204769205 0.00066452931352 0.00065717553106 0.00064998102976 
0.00064293989105 0.00063604429735 0.00062929313409 0.0006226806081 0.00061620130127 0.00060985336526 0.00060363149543 0.00059753178418 0.00059155021114 
0.00058568248 0.00057992586208 0.00057427691122 0.00070755726432 0.00069927577774 0.00069117139952 0.00068324172561 0.0006754900767 0.00066789832256 
0.00066047014644 0.00065319984068 0.00064608349618 0.00063911431046 0.00063229184596 0.00062560915924 0.00061906255718 0.00061264849885 0.00060636227288 
0.00060020009063 0.00059415758488 0.00058823040581 0.00058241588186 0.00057671049699 0.00071162118419 0.00070327252867 0.00069509936416 0.00068709647404 
0.00067926952391 0.00067159908467 0.00066408987406 0.00065673982816 0.00064954550459 0.00064250010372 0.00063560296762 0.00062884834037 0.00062223197224 
0.00061574978062 0.00060939766669 0.00060317098252 0.00059706535091 0.00059107706987 0.00058520221985 0.00057943813461 0.00071605131767 0.00070763234384 
0.00069938599124 0.00069130651029 0.00068339959572 0.00067564679358 0.00066805421934 0.00066061977787 0.00065334165076 0.00064621592078 0.00063924270569 
0.00063241405399 0.00062572618505 0.00061917462675 0.00061275458527 0.00060646166574 0.0006002912278 0.00059423931491 0.00058830241727 0.0005824759782 
0.00072083472946 0.00071233944833 0.00070401537645 0.0006958547428 0.00068786417302 0.00068002493847 0.00067234485533 0.00066482400661 0.00065746080002 
0.00065025192258 0.00064319870946 0.000636294822 0.00062953366348 0.00062291147665 0.00061642302032 0.00061006269812 0.00060382564812 0.00059770804713 
0.00059170676163 0.00058581659041 0.00072592440332 0.00071734885328 0.00070894204626 0.00070069592053 0.00069261758654 0.00068468885614 0.00067691849544 
0.00066930841912 0.00066185877067 0.00065456609239 0.00064743156497 0.00064044882095 0.00063361406946 0.00062692243446 0.00062036438818 0.00061393638811 
0.00060763187948 0.00060144675767 0.00059537904785 0.00058942335869 0.00073124081659 0.00072257992853 0.00071408558592 0.00070575107806 0.00069758153223 
0.00068956151638 0.00068170023874 0.00067400022076 0.00066646292751 0.00065908570853 0.00065187044126 0.00064481036488 0.00063790120094 0.00063113600633 
0.00062450881958 0.00061801326411 0.0006116416249 0.00060539048051 0.0005992551883 0.00059323260975 0.00073667005461 0.00072791947379 0.00071933435339 
0.00071090814827 0.00070263833071 0.00069453479882 0.00068658306642 0.00067879391744 0.00067116956768 0.00066370874947 0.00065641262116 0.00064927620434 
0.00064229317205 0.00063545689772 0.00062876027709 0.0006221957632 0.00061575826581 0.00060943974303 0.00060323785116 0.00059714859699 0.00074206532366 
0.0007332236815 0.00072454578478 0.00071602733748 0.00070766590488 0.00069947220355 0.00069143142713 0.00068355596988 0.00067584644665 0.00066830525718 
0.00066092832676 0.00065371658311 0.00064666048198 0.00063975437286 0.00063298951353 0.00062635777919 0.00061985290288 0.00061346865025 0.00060720226839 
0.0006010483756 0.00074727155228 0.00073833810837 0.00072956942618 0.00072096053288 0.00071251074491 0.00070422912374 0.00069610211578 0.00068814227612 
0.00068035147432 0.000672731231 0.00066527810578 0.00065799163938 0.0006508648961 0.00064389009459 0.00063705795617 0.00063036099134 0.00062379202778 
0.00061734445986 0.00061101347516 0.00060479656425 0.00075214595579 0.00074312463741 0.00073426875459 0.00072557266572 0.00071703834986 0.00070867332557 
0.00070046515396 0.00069242538698 0.00068455701707 0.00067686039711 0.00066933296472 0.00066197523435 0.00065477907806 0.00064773705502 0.00064084026979 
0.00063408019616 0.00062744964506 0.00062094192548 0.00061455129373 0.00060827529783 0.00075659600099 0.000747492928 0.000738555539 0.00072977930626 
0.00072116445877 0.00071272083519 0.00070443533397 0.00069631946521 0.00068837729075 0.00068060742784 0.00067300909309 0.000665582039 0.00065831956506 
0.00065121210448 0.0006442527954 0.00063743268425 0.00063074381912 0.00062417956853 0.00061773429206 0.00061140344312 0.00075089356044 0.00074245698492 
0.00073420076223 0.00072612568813 0.00071822925656 0.00071050540883 0.00070294931888 0.00069555211023 0.00068830945501 0.00068121384074 0.00067426064842 
0.00066744505441 0.00066076311646 0.00065421082682 0.00064778399043 0.00064147965059 0.0006352924936 0.00062921890798 0.00062325421476 0.00061739432329 
0.00075554416413 0.00074699543215 0.00073864074043 0.00073046494447 0.00072247017206 0.00071465245698 0.00070700476884 0.00069951942731 0.00069219213685 
0.000685015247 0.00067798319525 0.0006710920746 0.00066433689343 0.00065771363465 0.00065121775181 0.00064484677414 0.00063859553502 0.00063245881461 
0.00062643333611 0.00062051458679 0.00075999345856 0.00075134351326 0.00074288987107 0.00073461699034 0.0007265281666 0.00071861880493 0.00071088242348 
0.00070331168091 0.00069590149291 0.00068864475814 0.00068153581606 0.00067456959196 0.00066774190457 0.00066104863513 0.00065448471083 0.00064804736412 
0.00064173136522 0.00063553199703 0.00062944554292 0.00062346823473 0.000764232624 0.00075548515759 0.00074693735576 0.00073857246732 0.00073039362155 
0.00072239586782 0.00071457397787 0.00070692138848 0.00069942967344 0.00069209434441 0.0006849094185 0.00067786966279 0.00067097031076 0.00066420657876 
0.00065757549972 0.00065107221053 0.00064469216654 0.00063843025304 0.00063228296231 0.00062624683927 0.0007682914601 0.00075945389006 0.00075081754037 
0.00074236291362 0.00073409761044 0.00072601578701 0.00071811115068 0.00071037747421 0.0007028063587 0.00069539436999 0.00068813497769 0.00068102213718 
0.00067405147781 0.00066721843484 0.00066051943941 0.00065395027148 0.00064750557705 0.00064118173474 0.00063497381106 0.00062887969794 0.00077224027071 
0.00076331624904 0.00075458739336 0.00074605708525 0.00073770840704 0.00072954331866 0.00072155813629 0.00071374443667 0.00070609569754 0.0006986074957 
0.00069127307705 0.00068408710619 0.0006770454684 0.00067014267236 0.00066337605913 0.00065674096941 0.00065023171478 0.0006438448218 0.0006375767585 
0.00063142421199 0.00077616975462 0.00076716195898 0.00075835042287 0.00074973847442 0.00074130895968 0.00073306382247 0.00072499834029 0.00071710461683 
0.00070937770062 0.00070181290078 0.0006944036477 0.00068714425365 0.00068003041859 0.00067305765408 0.00066622278882 0.00065952070415 0.00065294631406 
0.00064649653999 0.00064016749785 0.00063395557707 0.00078017196398 0.00077108394481 0.000762191158 0.00075349848488 0.00074498803942 0.00073666225404 