# vtk DataFile Version 5.1
vtk output
ASCII
DATASET STRUCTURED_POINTS
DIMENSIONS 20 20 20
SPACING 0.005 0.005 0.005
ORIGIN 0.2189 -0.051172 0.02882
POINT_DATA 8000
FIELD FieldData 1
potential 1 8000 double
0.0008106923254 0.00079771213381 0.00078509041549 0.00077283390734 0.00076098667786 0.0007495198008 0.00073839274485 0.00072755518528 0.00071696517708 
0.00070661821438 0.00069651052076 0.00068664517966 0.00067702043443 0.00066762550179 0.00065845130989 0.00064947904919 0.00064068745933 0.00063206691868 
0.00062361077037 0.00061530280916 0.00080713749774 0.00079423565373 0.00078168216413 0.00076949007572 0.00075770604625 0.00074630684747 0.00073525502439 
0.00072449982663 0.00071399596443 0.00070373701802 0.00069371397278 0.000683930962 0.00067438842151 0.00066508058615 0.00065598537867 0.00064708538309 
0.00063836777426 0.00062980682854 0.00062139887705 0.00061313464431 0.00080136049467 0.00078858981372 0.00077615611477 0.0007640758441 0.00075239932902 
0.00074110907086 0.00073017032296 0.00071952877588 0.00070915225019 0.00069901099042 0.00068909968168 0.00067942193513 0.000669982059 0.00066076828715 
0.00065176963498 0.00064296128085 0.00063432287012 0.00062582912169 0.00061747742309 0.00060926547019 0.00079318499043 0.00078060088661 0.00076833270529 
0.00075643304794 0.00074491722002 0.00073378357361 0.00072300057152 0.00071251428559 0.00070229119404 0.00069229701594 0.0006825205819 0.00067297030357 
0.0006636515453 0.00065455245774 0.00064566199929 0.00063695520431 0.00062840821847 0.00061999710637 0.00061171886522 0.0006035782999 0.00078308472129 
0.00077073548723 0.0007586931118 0.00074701690159 0.00073570841204 0.00072477059154 0.00071417018715 0.00070387193236 0.00069382049047 0.0006839906468 
0.00067437098389 0.00066496692617 0.00065577889513 0.00064680410245 0.00063802880281 0.00062942994539 0.00062098229315 0.00061267482835 0.00060449323986 
0.00059644840837 0.00077195391845 0.00075985775225 0.00074809039593 0.00073666632199 0.0007255957905 0.00071487525053 0.00070447803367 0.00069436931015 
0.00068449820292 0.0006748388252 0.00066538313646 0.00065612666088 0.00064707691331 0.00063822842707 0.00062957012434 0.0006210817884 0.00061274520794 
0.00060454990789 0.00059648307687 0.0005885489985 0.00076073504076 0.00074891085641 0.0007374124001 0.00072624805163 0.00071541919573 0.00070491656902 
0.00069472471631 0.00068479831411 0.00067509887916 0.0006656040309 0.00065630607174 0.00064719788574 0.00063828360031 0.00062955910403 0.00062101583261 
0.00061263903874 0.00060441741261 0.00059634162858 0.00058839471767 0.00058059336864 0.00075012068869 0.00073856480096 0.00072732233187 0.00071640247635 
0.00070579313527 0.000695499565 0.00068549036293 0.00067573055533 0.00066619053249 0.00065684842053 0.00064769390365 0.00063872482135 0.00062993923369 
0.00062133492471 0.00061290520294 0.00060464239233 0.00059653659933 0.00058857659032 0.00058076401182 0.00057309382428 0.00074052571991 0.00072919936562 
0.00071818069906 0.0007074700247 0.00069706116747 0.00068694352123 0.00067709097884 0.00066747509974 0.00065807515404 0.00064886642607 0.00063984359276 
0.00063100153601 0.00062233721053 0.0006138494645 0.00060553381049 0.00059737894626 0.00058939048077 0.00058155446369 0.00057387124872 0.00056632827152 
0.00073208216159 0.00072095473558 0.00071012741189 0.000699588753 0.00068934580042 0.00067937135303 0.00066964658881 0.00066015325342 0.00065086791082 
0.0006417778165 0.00063287299649 0.0006241467507 0.00061559785651 0.00060722377804 0.00059901627683 0.00059098300699 0.0005831091648 0.00057539292759 
0.00056783044861 0.00056040974313 0.00072481653776 0.00071385932816 0.00070319128811 0.00069279415766 0.00068267701368 0.00067281145699 0.000663186676 
0.00065378977012 0.00064460374176 0.00063561549704 0.00062681811933 0.00061820179747 0.00060975644099 0.00060149442847 0.00059340534507 0.00058548565675 
0.00057772671431 0.00057012571236 0.00056267963129 0.0005553752754 0.00071871317049 0.00070789876482 0.00069735254781 0.00068707351986 0.00067705264891 
0.00066727069992 0.00065772662634 0.00064840512944 0.00063930198886 0.00063040515992 0.0006217065962 0.0006131867486 0.00060485685973 0.00059670523265 
0.00058872777928 0.00058091790079 0.00057326949294 0.00056577690133 0.00055843922384 0.00055124313079 0.00071375816202 0.00070305424368 0.00069261453816 
0.00068242146758 0.00067247372025 0.0006627599965 0.00065327605911 0.00064402144193 0.00063499255023 0.00062617025448 0.00061756357929 0.00060915172718 
0.00060092800067 0.00059288501612 0.00058501572673 0.00057731197927 0.00056976586934 0.00056237393107 0.00055513271423 0.00054803654112 0.00070992028242 
0.00069931418283 0.0006889515568 0.00067882252378 0.0006689344634 0.00065927166646 0.00064984401878 0.00064065080876 0.00063168119747 0.00062294322002 
0.00061442254457 0.00060610780249 0.0005979887356 0.00059005338915 0.00058229051394 0.00057468631427 0.00056723687341 0.00055993501776 0.0005527779752 
0.00054576434935 0.00070712697846 0.00069658721501 0.00068627867599 0.00067620170593 0.00066635331046 0.00065674592273 0.00064736516957 0.00063823091432 
0.00062933287594 0.00062066857085 0.0006122282481 0.00060400749304 0.00059599152501 0.0005881635934 0.00058050300035 0.00057299619434 0.00056563212473 
0.00055840808664 0.00055132173515 0.00054437554895 0.0007051310715 0.00069463907705 0.00068437277085 0.00067433173955 0.00066451967397 0.00065496405161 
0.00064564762661 0.00063657391359 0.00062774067033 0.00061914677282 0.00061078688693 0.00060265793623 0.00059474086277 0.00058701575089 0.0005794562184 
0.00057204049214 0.00056475650234 0.0005576007138 0.00055057271721 0.00054367940783 0.0007034434734 0.00069299107558 0.00068275336185 0.00067275211451 
0.00066299653187 0.00065349874598 0.00064424679436 0.00063524126064 0.00062648100315 0.00061796191234 0.00060968457002 0.00060164324994 0.0005938216422 
0.00058619353364 0.00057872962868 0.00057140208138 0.00056419313334 0.00055709838617 0.00055012329366 0.00054327287459 0.00070130238368 0.00069090607952 
0.00068072259493 0.00067077561861 0.00066108364332 0.00065165842965 0.00064248564566 0.00063356515443 0.00062488957912 0.00061645853983 0.00060826962695 
0.00060031840579 0.00059258759195 0.00058505040234 0.00057767501122 0.00057042972265 0.00056329588265 0.00055626665487 0.00054934783912 0.000542548306 
0.00069787714278 0.00068756019813 0.00067745732097 0.00066759263561 0.00065798769939 0.00064865561035 0.00063958499976 0.00063077057965 0.00062220342192 
0.00061387819111 0.00060579032491 0.00059793436463 0.0005902940707 0.00058284280523 0.00057555104162 0.00056838834175 0.00056133489739 0.0005543818433 
0.0005475327034 0.00054079597658 0.00069250830758 0.00068231603567 0.0006723338155 0.00066258897213 0.00065310405559 0.00064389429835 0.00063494958731 
0.00062626522357 0.00061782790308 0.00060962672902 0.00060165207133 0.00059390018268 0.00058635489598 0.00057899235796 0.00057178722898 0.00056471306917 
0.00055775120535 0.00055089064654 0.00054413045341 0.00053747619847 0.00093283718864 0.0009180116222 0.00090358406956 0.00088953956352 0.00087590877457 
0.00086266576384 0.00084978520585 0.00083723547086 0.00082498683619 0.0008130326283 0.0008013568776 0.00078995467551 0.00077881898674 0.00076793924499 
0.00075730687748 0.00074690643378 0.0007367176861 0.00072673409086 0.00071694434465 0.00070733601629 0.00092715948835 0.00091246352452 0.00089815874566 
0.00088423239817 0.00087071732268 0.0008575896647 0.00084482583691 0.0008323935594 0.00082026277806 0.00080842423152 0.00079686206848 0.00078557012936 
0.00077454271588 0.00076377274473 0.00075323837728 0.00074293297298 0.00073284266225 0.00072294597031 0.00071323649604 0.00070370605585 0.00092010287634 
0.00090556937631 0.00089140618052 0.00087764092106 0.00086426903411 0.00085128234831 0.00083865894601 0.00082636201557 0.00081437328161 0.00080266829492 
0.00079123576162 0.00078006880049 0.0007691630063 0.00075850484515 0.0007480843775 0.00073788520145 0.00072789439763 0.00071809022916 0.00070846777851 
0.00069902085915 0.00091156944703 0.00089723283655 0.00088325963931 0.00086967636048 0.00085647996685 0.00084366291515 0.00083120482778 0.00081906883732 
0.00080723767683 0.00079568555301 0.00078439614252 0.0007733666018 0.00076259370216 0.00075206122975 0.00074176124761 0.00073167663263 0.0007217926349 
0.00071209071683 0.00070256504439 0.0006932133981 0.00090180782424 0.00088769715842 0.0008739406412 0.00086057397514 0.0008475795022 0.0008349567567 
0.00082267871206 0.00081072686263 0.0007990673918 0.00078767950961 0.00077654812919 0.00076566990971 0.00075503399313 0.00074463437139 0.0007344603545 
0.00072449588401 0.00071472744592 0.00070513851389 0.00069572297124 0.00068647964048 0.00089130837318 0.0008774312865 0.00086392886923 0.00085079440746 
0.00083802219754 0.00082560628948 0.00081352432553 0.00080176039164 0.00079027889871 0.0007790602368 0.00076809361734 0.00075736547511 0.00074687403659 
0.00073661064268 0.00072656662731 0.00071672631557 0.00070707743797 0.00069761205253 0.00068831590428 0.00067918643311 0.00088063248991 0.00086700770267 
0.00085375246633 0.00084085604065 0.0008283092295 0.00081610029804 0.00080422212756 0.00079264326989 0.00078133618584 0.00077028545153 0.00075947928027 
0.00074890304409 0.00073855560306 0.00072842933894 0.00071851528409 0.00070880245559 0.00069927878347 0.00068993948641 0.0006807647893 0.00067176758847 
0.0008702462848 0.00085688222906 0.00084386709271 0.00083120147481 0.00081886517431 0.00080686432482 0.00079517346646 0.00078377049396 0.00077263281843 
0.00076174334807 0.00075108828479 0.00074066129454 0.0007304542392 0.00072046303604 0.00071067858034 0.0007010934889 0.00069169127318 0.00068248011613 
0.00067344207725 0.00066457509526 0.00086050361996 0.00084737078203 0.00083457840208 0.00082212509369 0.00080998867402 0.00079817306483 0.00078665409927 
0.00077541283252 0.00076443270332 0.00075369112832 0.00074318142398 0.00073289495157 0.00072282482336 0.00071296520046 0.00070331036861 0.00069384688668 
0.00068457869739 0.00067549248675 0.00066658720036 0.00065784880549 0.00085156962455 0.00083864789699 0.00082605769491 0.00081378440206 0.00080183492172 
0.00079018298606 0.00077881771247 0.00076772561181 0.00075688352771 0.00074628064634 0.00073590726178 0.00072575514313 0.00071581535366 0.0007060859552 
0.00069655150753 0.00068722109177 0.00067808041812 0.00066912076733 0.00066034188234 0.00065172961295 0.00084352583647 0.00083079467491 0.00081837861858 
0.00080627751477 0.00079448219543 0.00078297339553 0.00077174175133 0.00076077750954 0.00075006286491 0.00073958664609 0.0007293418105 0.00071931697905 
0.00070949874563 0.00069989502723 0.00069049427484 0.00068128945621 0.00067227222766 0.00066343707965 0.00065478131211 0.00064629017681 0.00083639445489 
0.00082383155943 0.00081157315166 0.00079961692992 0.00078795511256 0.00077657006035 0.0007654595843 0.00075460748173 0.00074400817263 0.00073364965809 
0.00072352581793 0.00071361634326 0.00070392939562 0.00069445087304 0.00068517402664 0.00067609038193 0.00066719434108 0.00065847739552 0.00064993853998 
0.00064156354179 0.00083015687224 0.00081773797522 0.0008056222998 0.00079379243856 0.00078224749066 0.00077097419256 0.00075996661946 0.00074922048546 
0.00073872920792 0.00072847378379 0.00071846450658 0.00070868048041 0.00069911492657 0.00068975870361 0.00068060233287 0.00067163734467 0.00066285641084 
0.00065425193361 0.00064582096114 0.00063755639371 0.00082475226928 0.00081247114573 0.00080047589298 0.000788756154 0.00077731777145 0.00076614113029 
0.00075523155002 0.00074457681058 0.00073418805219 0.00072404616599 0.00071414718526 0.00070447846843 0.00069503169393 0.00068579495106 0.00067675661403 
0.00066790561458 0.00065923562504 0.00065073676129 0.00064240555958 0.00063423972899 0.00082006749794 0.000807903286 0.00079601426861 0.00078439794899 
0.00077304651092 0.00076196958814 0.00075114751468 0.00074059752988 0.00073030693659 0.00072026821757 0.00071047687768 0.0007009216646 0.00069159153761 
0.00068247233278 0.0006735487063 0.00066480811797 0.0006562410586 0.00064784029136 0.00063960210649 0.00063152435467 0.00081586545037 0.00080380771435 
0.0007920191663 0.00078049310192 0.0007692277979 0.00075824599984 0.00074752704332 0.00073707452546 0.00072688371904 0.00071694901327 0.0007072640473 
0.00069782037078 0.00068860425699 0.00067959880474 0.00067078728688 0.00066215287212 0.00065368519788 0.00064537719709 0.0006372244106 0.00062922709115 
0.00081177719073 0.0007998261121 0.00078812536053 0.0007766953136 0.0007655342051 0.00075465146779 0.00074403421191 0.00073368556908 0.0007235989752 
0.00071377118034 0.00070419369578 0.00069486061334 0.00068575656759 0.00067686265269 0.00066816062289 0.00065963062692 0.00065125977105 0.0006430396744 
0.00063496866162 0.00062704774846 0.00080731683718 0.00079547813041 0.00078389211593 0.00077256817958 0.00076151530898 0.0007507419495 0.00074023687242 
0.00073000051698 0.00072002779226 0.00071031297425 0.00070084871602 0.00069162837865 0.000682635287 0.00067385106643 0.00066525552728 0.00065682740627 
0.00064855322557 0.00064042387015 0.00063243670922 0.000624592289 0.00080201348561 0.00079030258583 0.00077884252953 0.00076764183282 0.00075671262753 
0.00074606304557 0.00073568451045 0.00072557514495 0.00071572849316 0.00070613689687 0.00069679276541 0.00068768762318 0.00067880762144 0.00067013300291 
0.00066164326767 0.0006533187912 0.00064514466921 0.0006371114318 0.00062921534966 0.00062145638579 0.00079549753942 0.00078394270505 0.00077263400133 
0.00076158072663 0.00075079574132 0.00074028900166 0.00073005250084 0.00072008415525 0.00071037512848 0.00070091808883 0.00069170069426 0.00068271730474 
0.00067395317211 0.00066539039075 0.00065700951976 0.00064879303272 0.00064072574768 0.00063279758862 0.00062500207047 0.00061733958437 0.0010555999795 
0.0010388965141 0.0010226242997 0.0010067695214 0.0009913497968 0.00097634075864 0.00096172243143 0.00094747222022 0.00093356588115 0.00091999717555 
0.00090674595792 0.00089380289015 0.00088115691982 0.00086879729742 0.00085671506637 0.00084489521253 0.00083331912881 0.00082198134913 0.00081086789053 
0.00079996863696 0.0010482471392 0.0010317101257 0.0010156065209 0.0009999105069 0.00098464614567 0.00096978890804 0.00095532083356 0.00094121821852 
0.00092745667347 0.00091402893344 0.00090091629832 0.0008881066019 0.00087559166111 0.0008633627987 0.00085139797746 0.00083969725327 0.00082823672034 
0.00081700781064 0.00080599884197 0.00079520205401 0.0010400238736 0.0010236788503 0.0010077468957 0.00099224084016 0.00097714946592 0.00096246023507 
0.00094815652395 0.00093421067422 0.00092061098478 0.0009073348548 0.00089436979603 0.00088170430687 0.00086932881854 0.00085722983822 0.00084539547314 
0.00083381479039 0.00082247636317 0.00081136040088 0.00080046147244 0.00078977034554 0.0010308714535 0.0010147396848 0.00099901336478 0.00098370665743 
0.00096880727389 0.00095430406945 0.00094018037805 0.00092640822522 0.00091297780912 0.00089986656436 0.00088705772865 0.0008745433251 0.00086231459758 
0.00085035469502 0.00083865596367 0.00082720443217 0.00081599004541 0.00080499389594 0.0007942098894 0.00078363256658 0.0010209266212 0.0010050136532 
0.0009895216252 0.00097443674121 0.00095974518111 0.00094544236052 0.00093150642169 0.00091792509895 0.00090467378545 0.00089173495488 0.00087909225672 
0.00086673905595 0.00085465873354 0.00084284387506 0.0008312842886 0.00081996664338 0.00080888235726 0.00079801192333 0.00078735156876 0.00077689538459 
0.0010104714261 0.00099480357279 0.0009795502422 0.00096469520072 0.00095022323087 0.00093612524926 0.00092239456115 0.00090900725053 0.00089593922033 
0.00088317652665 0.00087070628399 0.00085851166608 0.00084658593547 0.00083491957293 0.00082350255847 0.00081232260048 0.00080136896347 0.00079063353188 
0.00078010310012 0.00076976907918 0.00099985014295 0.00098443201735 0.00096942182303 0.00095480151 0.00094055446595 0.00092666977804 0.00091314139115 
0.00089994575825 0.00088706101625 0.00087447417118 0.00086217293228 0.00085014044079 0.00083836907877 0.00082685227385 0.00081557879792 0.0008045397068 
0.00079372309835 0.0007831225967 0.00077272062858 0.00076252548336 0.00098937193788 0.00097421657514 0.00095944623424 0.00094505567456 0.00093102232071 
0.00091735105456 0.00090401898969 0.00089101052958 0.00087830646702 0.00086589260227 0.00085375411711 0.00084188138245 0.00083026425052 0.0008188957538 
0.00080776686208 0.00079686833625 0.00078618385577 0.0007757217318 0.00076546174977 0.00075540115989 0.00097931454885 0.00096439835954 0.00094985729333 
0.00093568635928 0.00092186196265 0.0009083875793 0.00089524341526 0.00088241262937 0.00086988292148 0.00085763141447 0.00084565260516 0.0008339350533 
0.00082246868669 0.00081124720476 0.0008002617543 0.00078949736319 0.0007789582911 0.0007686299509 0.00075850997444 0.0007485835753 0.00096982645139 
0.00095513535797 0.00094081052499 0.00092683501776 0.00091321454448 0.00089992454756 0.00088695462221 0.0008742940617 0.00086192252558 0.00084982892884 
0.00083800521388 0.00082643706732 0.00081511789048 0.00080404108238 0.00079319045082 0.00078257206355 0.00077217102324 0.0007619790078 0.00075199375126 
0.00074219997879 0.00096099824268 0.00094651805626 0.00093238872704 0.00091860754202 0.00090516747357 0.00089204688409 0.00087923817597 0.00086673312681 
0.00085451367405 0.00084256944574 0.00083089223281 0.00081947070264 0.00080828824868 0.00079735286282 0.00078664895097 0.0007761683376 0.00076590283446 
0.00075584487814 0.00074599118654 0.00073632704562 0.00095286483034 0.000938579266 0.00092463460588 0.00091102848702 0.00089775237929 0.00088478762787 
0.00087213200705 0.00085976941208 0.00084769285723 0.00083589035167 0.00082435562047 0.0008130685543 0.00080203427661 0.0007912380928 0.00078067129084 
0.00077032554919 0.00076019239998 0.00075026382694 0.0007405380034 0.00073099970042 0.00094540997872 0.00093129916868 0.00091753154565 0.00090408543835 
0.00089096198389 0.00087814517568 0.00086562736433 0.00085340258163 0.00084146300309 0.00082978945475 0.00081839184746 0.00080724862993 0.00079635248483 
0.00078569290577 0.00077526110335 0.00076504701009 0.00075504252786 0.00074523981599 0.00073563395511 0.00072621715985 0.00093856833594 0.00092463258853 
0.00091102226248 0.00089772660706 0.00088474791437 0.00087206580611 0.00085968129932 0.00084758151402 0.00083577430288 0.00082424077747 0.00081297677838 
0.00080196720684 0.00079120580768 0.0007806815238 0.00077038095063 0.00076029535335 0.00075041672445 0.0007407344331 0.00073124379113 0.00072194122805 
0.00093223266448 0.00091845554479 0.00090499475429 0.0008918441963 0.00087899807504 0.00086644847904 0.00085418744865 0.0008422248195 0.00083054679484 
0.00081914377162 0.00080801038477 0.00079713503741 0.0007865058544 0.00077611316555 0.00076594205795 0.00075598211169 0.00074622318621 0.00073665709058 
0.00072727740088 0.00071808153333 0.00092620717194 0.00091258245486 0.00089926803354 0.00088625265173 0.00087352888473 0.00086111651466 0.00084899325979 
0.00083716029946 0.00082561169653 0.0008143405723 0.00080333659642 0.00079259278969 0.00078209567111 0.00077183159345 0.00076178777489 0.00075194953936 
0.00074230826756 0.0007328542094 0.00072358169303 0.00071448738472 0.00092022619601 0.00090675659504 0.00089357634962 0.00088069997546 0.00086812102946 
0.00085584371747 0.00084385492511 0.00083215660997 0.0008207403437 0.00080960114912 0.00079872819579 0.00078811561809 0.00077774817329 0.00076761286709 
0.0007576942199 0.00074797741078 0.00073845163082 0.00072910703555 0.00071993871982 0.00071094373735 0.00091397683381 0.00090066165825 0.00088764019258 
0.00087491059221 0.0008624760662 0.0008503411562 0.00083849366984 0.00082693362761 0.00081565557829 0.00080465251465 0.00079391445934 0.00078343449255 
0.00077319773864 0.00076319019888 0.00075339553312 0.00074379877563 0.00073438844648 0.00072515551896 0.00071609201807 0.00070719656123 0.00090717506692 
0.0008940288596 0.00088117023765 0.00086859802573 0.00085631745124 0.00084433417249 0.00083263632534 0.00082122460577 0.00081009233882 0.00079923126299 
0.00078863193173 0.00077828697913 0.00076818232231 0.00075830306501 0.00074863353289 0.00073915849856 0.00072986582974 0.00072074630439 0.00071179204926 
0.00070300070034 0.00089960865774 0.00088664683752 0.000873966486 0.00086156684819 0.00084945404353 0.00083763380036 0.00082609664255 0.00081484190188 
0.00080386219356 0.00079315002854 0.00078269358366 0.0007724877073 0.00076251706603 0.00075276782498 0.00074322518902 0.00073387506764 0.0007247041621 
0.00071570303918 0.00070686415201 0.00069818300636 0.0011785800238 0.0011599799006 0.0011418538549 0.0011241796515 0.0011069723824 0.001090205809 
0.0010738625117 0.0010579230022 0.0010423666647 0.001027186236 0.0010123621461 0.00099788125726 0.00098373065477 0.00096990122398 0.00095637427515 
0.0009431455222 0.00093019179391 0.00091750726144 0.00090507901197 0.00089289637073 0.0011698125158 0.0011514143459 0.001133490272 0.0011160086246 
0.0010989891979 0.0010824047532 0.0010662399088 0.0010504744168 0.0010350875143 0.0010200719208 0.0010054081437 0.00099108207057 0.00097708306471 
0.00096340054127 0.00095001368228 0.0009369220076 0.00092410265616 0.00091154717549 0.00089924343839 0.00088718247931 0.0011604924952 0.001142312914 
0.0011245878753 0.0011073239689 0.0010905027617 0.0010741110383 0.001058133222 0.001042546003 0.001027340476 0.0010124959512 0.00099799853015 
0.00098383437398 0.00096999268332 0.00095645824963 0.00094321840037 0.000930264233 0.00091758465552 0.00090516059223 0.00089298453045 0.00088104875826 
0.0011505824407 0.0011326358456 0.0011151357754 0.0010980896168 0.0010814788341 0.0010652907018 0.0010495090678 0.0010341129399 0.0010190925512 
0.0010044260951 0.00099010156077 0.00097610384373 0.00096242423029 0.00094904393783 0.00093595569145 0.00092314620471 0.00091060658568 0.0008983181962 
0.00088627416786 0.00087446774161 0.0011401605695 0.0011224462476 0.0011051964757 0.0010883796415 0.0010719885454 0.0010560137586 0.0010404332075 
0.0010252390789 0.0010104098681 0.0009959295781 0.00098178275012 0.00096795941408 0.00095444134783 0.00094122001621 0.00092828506818 0.0009156230978 
0.00090322803793 0.00089107975377 0.00087917339357 0.00086750135723 0.0011293960804 0.0011119349525 0.0010949273447 0.0010783520637 0.001062189112 
0.0010464277478 0.0010310625967 0.0010160725892 0.0010014376312 0.00098714502538 0.0009731811892 0.00095952835566 0.00094617806351 0.00093311831696 
0.00092033932986 0.000907829554 0.00089557800258 0.00088357654555 0.00087181130327 0.00086027206192 0.001118490871 0.0011013004335 0.0010845427723 
0.0010682079964 0.0010522777005 0.0010367375304 0.0010215848466 0.0010067974692 0.00099235723012 0.00097825538918 0.00096446985592 0.00095099144635 
0.00093780795935 0.00092491114968 0.00091228923854 0.0008999329131 0.00088783055343 0.00087597540008 0.000864348293 0.00085295670359 0.0011076907795 
0.0010907582906 0.0010742484143 0.0010581517113 0.0010424433003 0.0010271281554 0.0010121846426 0.00099759723073 0.000983349019 0.00096943249473 
0.00095582586778 0.00094252030665 0.00092950527256 0.00091677044786 0.00090430659252 0.0008921042399 0.00088014553323 0.00086843914663 0.00085696332437 
0.00084571443583 0.0010971651884 0.0010804842729 0.0010642160697 0.0010483510225 0.0010328648105 0.0010177608612 0.001003019733 0.00098862747004 
0.00097457215314 0.00096083131905 0.0009474004145 0.00093426525943 0.00092141461411 0.00090884142725 0.00089653474793 0.00088447894129 0.0008726780609 
0.00086111623279 0.00084978922625 0.00083868253151 0.0010870448908 0.0010706064163 0.0010545698156 0.0010389175106 0.0010236541189 0.0010087538204 
0.00099420715194 0.00098000502469 0.00096612736885 0.00095256209663 0.0009393020152 0.00092633387728 0.00091364671969 0.00090122569739 0.00088907472631 
0.00087717824696 0.0008655271224 0.00085411225675 0.00084292957562 0.00083196455497 0.0010774112431 0.0010612048082 0.0010453855069 0.001029950142 
0.0010148893005 0.0010001817385 0.00098582320312 0.00097179766304 0.00095809332835 0.00094469891898 0.00093160523905 0.00091879969242 0.00090626578163 
0.0008940089189 0.00088201182615 0.00087026601825 0.00085876255115 0.0008474929625 0.0008364523038 0.00082562681829 0.0010682982446 0.0010523134357 
0.0010367047525 0.001021470793 0.0010066016993 0.00099207827961 0.00097789754773 0.0009640426108 0.00095050635311 0.00093727627349 0.00092433740869 
0.00091169208271 0.0008993225824 0.00088721944651 0.0008753743159 0.00086377683645 0.00085241851468 0.00084129114884 0.0008303902258 0.00081970000089 
0.0010596970868 0.0010439152334 0.0010285135617 0.0010134706743 0.00099878497411 0.00098444035883 0.00097042640645 0.00095673791722 0.00094336395193 
0.00093028570011 0.00091751289047 0.00090502377957 0.00089280848186 0.00088085817473 0.00086916208492 0.00085771036406 0.00084649462603 0.0008355058229 
0.00082473818103 0.00081418319766 0.0010515467495 0.0010359726197 0.0010207629283 0.0010059032201 0.00099139608602 0.00097721783782 0.00096336841409 
0.00094983339529 0.00093661897749 0.00092370545008 0.00091108698658 0.0008987506808 0.00088668811306 0.00087488824732 0.00086333880079 0.00085203186101 
0.00084095506002 0.00083010152714 0.00081946429374 0.00080903704835 0.0010437614631 0.0010283821019 0.001013357575 0.0009986793931 0.00098433969633 
0.000970327425 0.00095663254593 0.00094326356453 0.00093020526066 0.000917446316 0.0009049816374 0.00089279782547 0.00088088534374 0.00086923318076 
0.00085782884766 0.00084666174092 0.00083572195853 0.00082500108864 0.00081449106318 0.00080418695853 0.0010361903268 0.0010210015243 0.0010061620342 
0.00099165614427 0.00097747371591 0.0009636308129 0.00095010515717 0.00093689451244 0.00092399181376 0.00091138750685 0.00089907619431 0.00088704407072 
0.00087528056289 0.00086377358487 0.00085251191735 0.00084148340964 0.00083067840112 0.00082008666614 0.00080970127416 0.00079951798013 0.0010286464852 
0.0010136519466 0.00099898398179 0.00098465407764 0.00097064988783 0.00095697405146 0.00094361147033 0.00093056296618 0.00091781776292 0.00090537033811 
0.00089320888497 0.00088132831331 0.00086971270854 0.00085835173921 0.00084723191373 0.00083634094511 0.00082566862912 0.00081520470946 0.00080494265107 
0.00079488049567 0.0010209249718 0.0010061212838 0.00099164771289 0.00097749882323 0.00096367075092 0.00095016532488 0.00093696994306 0.00092408389793 
0.00091149993395 0.00089921047256 0.0008872045336 0.00087547476164 0.00086400854592 0.00085279297859 0.00084181412585 0.00083106058229 0.00082052133141 
0.00081018615845 0.00080004688138 0.00079010011492 0.0010128507285 0.00099824833123 0.00098396870541 0.00097000533229 0.00095635933065 0.00094303115216 
0.0009300093993 0.00091729267353 0.0009048745517 0.00089274632551 0.00088089714169 0.00086932124546 0.00085800447095 0.00084693469821 0.00083609821117 
0.00082548276453 0.00081507752941 0.00080487238672 0.00079485853196 0.00078503287404 0.0010042893803 0.0009899014335 0.00097582505235 0.00096205853114 
0.00094860233782 0.00093545895572 0.00092261693413 0.00091007487802 0.00089782722844 0.00088586351383 0.00087417507798 0.00086275474781 0.00085158951203 
0.00084066621407 0.0008299733137 0.00081949812306 0.00080922920823 0.00079915692202 0.00078927250951 0.00077957119817 0.001301496577 0.0012809978854 
0.0012610159031 0.0012415239244 0.0012225351476 0.0012040199395 0.0011859644013 0.0011683485311 0.0011511527667 0.0011343699552 0.0011179802448 
0.0011019687556 0.0010863215462 0.0010710288411 0.0010560708436 0.0010414420274 0.001027120032 0.0010130990702 0.00099936512853 0.00098590690778 
0.0012914753574 0.0012712097783 0.0012514592557 0.0012321896309 0.0012134156101 0.0011951111157 0.001177258486 0.00115984031 0.0011428368526 
0.0011262410803 0.0011100316198 0.0010941963169 0.0010787199181 0.0010635920984 0.0010487924008 0.0010343186611 0.0010201492398 0.001006273753 
0.00099268212735 0.00097936255774 0.0012811061244 0.0012610851056 0.0012415593504 0.0012225317427 0.001203980635 0.0011858915729 0.0011682481351 
0.001151027824 0.0011342259654 0.0011178213431 0.0011017979906 0.0010861413065 0.0010708401398 0.0010558777792 0.0010412424101 0.001026922788 
0.0010129092865 0.00099918250878 0.00098573514701 0.00097255720515 0.0012703638072 0.0012505962543 0.0012313164255 0.001212527361 0.0011942063329 
0.0011763392052 0.001158904822 0.0011419002426 0.0011253002987 0.0011090892867 0.0010932548603 0.0010777843596 0.001062658081 0.0010478660169 
0.0010333969511 0.0010192381614 0.00100538086 0.00099180484217 0.00097850476768 0.00096547086459 0.0012592940015 0.0012397761483 0.0012207644705 
0.001202217361 0.0011841329431 0.0011664951477 0.0011492826314 0.0011324899095 0.0011160953161 0.0011000849446 0.0010844435574 0.0010691589225 
0.001054212091 0.0010395939816 0.0010252924183 0.0010112967835 0.00099759723181 0.00098417688099 0.00097102711787 0.00095814108175 0.0012480005022 
0.001228751407 0.0012099943518 0.0011917043691 0.0011738598662 0.0011564485202 0.0011394666169 0.0011228900446 0.0011067045049 0.0010908954424 
0.0010754507825 0.0010603502819 0.0010455852795 0.0010311424374 0.0010170115847 0.0010031815908 0.00098963920546 0.00097637807325 0.00096338227436 
0.00095064055703 0.0012366121992 0.0012176460874 0.0011991507473 0.0011811131021 0.0011635136962 0.0011463364868 0.0011295795613 0.0011132203201 
0.0010972436283 0.0010816394936 0.0010663866661 0.0010514744321 0.0010368910606 0.0010226241361 0.0010086649948 0.00099500113975 0.00098162062805 
0.00096851216577 0.00095567182428 0.00094308776277 0.0012252995939 0.0012066056158 0.0011883707587 0.0011705845884 0.0011532210239 0.0011362824367 
0.0011197490138 0.0011036051872 0.0010878351558 0.0010724313991 0.0010573720129 0.0010426470735 0.0010282454544 0.0010141562111 0.0010003681622 
0.000986870884 0.00097364752522 0.00096070532703 0.0009480203455 0.00093558955785 0.001214182937 0.0011957556847 0.0011777782086 0.0011602335564 