# vtk DataFile Version 5.1
vtk output
ASCII
DATASET STRUCTURED_POINTS
DIMENSIONS 20 20 20
SPACING 0.005 0.005 0.005
ORIGIN 0.2189 -0.051172 0.02882
POINT_DATA 8000
FIELD FieldData 1
potential 1 8000 double
0.0044348262347 0.0042851836578 0.0041424277603 0.0040063378147 0.0038766796063 0.0037531212629 0.0036352567889 0.0035226711594 0.0034150185566 
0.0033120538921 0.003213606665 0.0031195064016 0.0030295649165 0.0029435537259 0.0028612533251 0.002782424478 0.0027068340271 0.0026342859343 
0.0025646160831 0.0024976318837 0.004371850717 0.004225944034 0.0040866105678 0.0039536931667 0.0038269880903 0.0037062083822 0.0035909792271 
0.003480881654 0.003375592457 0.0032748495939 0.0031784733568 0.0030863112513 0.0029981975605 0.0029139214603 0.0028332492819 0.0027559288744 
0.0026817496879 0.002610488418 0.0025419836324 0.0024760780791 0.0042967780792 0.0041550591101 0.0040195877758 0.0038902465868 0.0037668669336 
0.0036492103235 0.0035369299233 0.0034296375951 0.0033270001496 0.0032287422895 0.0031346906595 0.0030447004286 0.0029586134309 0.0028762483818 
0.0027973797755 0.0027217523689 0.0026491230272 0.0025792789678 0.0025120692161 0.0024473707861 0.0042087023611 0.0040716512214 0.0039405326102 
0.0038152242304 0.0036956002865 0.0035814577279 0.0034724788183 0.0033683067786 0.0032686082871 0.0031731163872 0.0030816331378 0.0029940505301 
0.0029102218123 0.0028299692796 0.0027530776763 0.0026792984351 0.0026083919894 0.0025401335085 0.0024743917412 0.0024110734776 0.004110309731 
0.003978320878 0.0038519449552 0.0037310650118 0.0036155581767 0.0035052332742 0.0033998330266 0.0032990243421 0.0032024691697 0.0031099352871 
0.0030212360062 0.0029362534855 0.0028548429406 0.0027768456343 0.0027020542195 0.0026302397356 0.0025611547632 0.0024946357268 0.00243052541 
0.0023687583346 0.004006604689 0.0038798734756 0.0037584467516 0.0036422197339 0.0035310309238 0.0034246967333 0.0033230076505 0.0032256589414 
0.0031323536365 0.003042868443 0.0029570295632 0.0028747142449 0.0027957959797 0.0027201108482 0.0026474720742 0.0025776639931 0.0025104878921 
0.0024457829337 0.0023834075375 0.0023233029972 0.0039028482823 0.0037813393891 0.0036648561814 0.003553254752 0.0034463816251 0.003344059943 
0.0032460706307 0.0031521613579 0.0030620761938 0.0029756220999 0.0028926376492 0.002812993277 0.0027365563788 0.0026631674108 0.0025926625732 
0.0025248546423 0.0024595868398 0.0023967051848 0.0023360922883 0.0022776685619 0.0038029460116 0.0036864384285 0.0035747146076 0.0034675879552 
0.0033648822143 0.0032664262263 0.0031720237197 0.0030814495057 0.00299449341 0.0029109785928 0.0028307614346 0.0027537060281 0.0026796761564 
0.002608523318 0.002540093908 0.0024742462037 0.0024108340636 0.0023497321162 0.0022908320018 0.0022340479347 0.0037090742156 0.0035972685664 
0.0034900012186 0.0033870697636 0.0032883023516 0.0031935145405 0.0031025222418 0.0030151312408 0.0029311582176 0.0028504535566 0.0027728726588 
0.0026982874157 0.0026265618545 0.0025575545419 0.0024911313323 0.0024271686559 0.0023655413791 0.0023061373078 0.0022488663899 0.0021936281095 
0.0036220419466 0.0035146061865 0.0034114780706 0.003312449178 0.0032173483954 0.0031259967881 0.0030382162106 0.0029538309789 0.002872682404 
0.0027946347515 0.0027195463084 0.0026472959696 0.0025777607309 0.0025107996366 0.0024462974798 0.0023841378561 0.0023242025113 0.0022664103055 
0.0022106610089 0.0021568667034 0.0035419656828 0.0034385809316 0.0033392807102 0.0032438589954 0.0031521583613 0.0030639994616 0.0029792225935 
0.0028976611103 0.0028191686438 0.0027436142112 0.0026708786498 0.0026008397219 0.0025333733019 0.0024683546412 0.0024056703362 0.0023452210592 
0.0022868962494 0.0022306188859 0.0021762982091 0.0021238504716 0.0034687104875 0.0033690674779 0.0032732924557 0.0031812020805 0.0030926473474 
0.0030074549275 0.0029254773912 0.0028465560715 0.0027705478315 0.0026973387426 0.0026268143067 0.0025588511683 0.002493341705 0.0024301615751 
0.0023692030734 0.0023103689002 0.0022535617073 0.0021987020678 0.0021457148015 0.002094522578 0.0034021128364 0.0033059131785 0.0032133762445 
0.0031243492972 0.0030386908076 0.0029562441236 0.0028768651244 0.0028004016945 0.0027267198852 0.0026557009523 0.0025872473729 0.0025212434919 
0.0024575783559 0.0023961352617 0.0023368108332 0.0022794995405 0.0022241110265 0.0021705808782 0.0021188436122 0.0020688215331 0.0033419621202 
0.0032489175544 0.0031593453096 0.0030731139161 0.0029901122603 0.0029101934505 0.0028332216454 0.0027590432357 0.0026875155264 0.0026185451647 
0.0025520289477 0.0024878672652 0.0024259484212 0.0023661564586 0.0023083802212 0.0022525035299 0.0021984581887 0.0021461698266 0.0020955795273 
0.0020466375084 0.0032877869806 0.0031976133155 0.003110730337 0.0030270508202 0.0029464815551 0.002868902337 0.0027941563713 0.0027220939016 
0.0026525738464 0.0025855101078 0.0025208079246 0.0024583824002 0.0023981240542 0.0023399146774 0.002283605154 0.0022290988083 0.0021763022272 
0.0021251688394 0.002075644831 0.0020276996638 0.0032384206173 0.0031508765431 0.0030664585257 0.002985122256 0.0029068028241 0.0028313923793 
0.00275872211 0.0026886379008 0.0026210007114 0.0025557264641 0.0024927424447 0.0024319687034 0.0023732865561 0.0023165738775 0.0022616785302 
0.0022084767269 0.0021568739767 0.0021068276264 0.0020582990987 0.0020112747117 0.0031915947576 0.0031065133636 0.0030244158909 0.0029452909843 
0.0028691050021 0.0027957533475 0.0027250644822 0.0026568758323 0.0025910577852 0.002527510306 0.0024661766815 0.0024069771258 0.0023498126151 
0.0022945366525 0.0022410025678 0.0021890609808 0.0021386155391 0.0020896151429 0.002042047278 0.001995905737 0.0031438579655 0.003061214269 
0.0029814065893 0.002904472206 0.0028303992106 0.002759088059 0.0026903653041 0.0026240752249 0.0025600593392 0.0024982407483 0.0024385456303 
0.0023809060682 0.0023252169942 0.00227134498 0.0022191351729 0.0021684301653 0.0021191370854 0.0020711993149 0.0020246100216 0.0019793684606 
0.0030913553302 0.0030112388881 0.0029338259538 0.0028591719476 0.002787278758 0.0027180729023 0.0026513936135 0.0025870637113 0.0025249436006 
0.0024649175211 0.0024069120028 0.002350852992 0.0022966518973 0.0022441766605 0.002193289269 0.0021438421107 0.0020957434997 0.0020489329665 
0.0020033979314 0.0019591376651 0.0030311542339 0.0029537555663 0.002878917815 0.0028067179589 0.0027371682761 0.002670210137 0.0026056969034 
0.0025434584063 0.0024833382942 0.0024252028597 0.0023689574971 0.0023145455396 0.00226188159 0.0022108491658 0.0021613318027 0.002113204175 
0.0020663821807 0.002020799396 0.0019764313725 0.0019332698032 0.005098792969 0.0049278363037 0.0047647530873 0.0046091804152 0.0044607757625 
0.0043191706278 0.0041839739409 0.0040547976613 0.0039313016472 0.0038131889152 0.003700196743 0.0035920961011 0.0034886528857 0.0033896204423 
0.0032947646702 0.0032038457844 0.0031166166761 0.0030328851915 0.002952445913 0.0028751081688 0.0050171504445 0.0048508642565 0.0046921080057 
0.0045405587567 0.0043959082991 0.0042578185953 0.0041259269363 0.0039998529714 0.0038792762884 0.0037638997118 0.0036534750234 0.0035477791266 
0.0034465975719 0.0033496968784 0.0032568284135 0.0031677768109 0.0030823066889 0.0030002031872 0.0029212760982 0.0028453594738 0.0049281115263 
0.0047667459181 0.0046125638725 0.0044652707597 0.0043245887047 0.0041902170704 0.0040618143543 0.003939025132 0.003821531872 0.0037090458403 
0.0036013370722 0.0034981888613 0.0033993855635 0.0033047224672 0.0032139664833 0.0031268833255 0.0030432505937 0.0029628572207 0.0028855283072 
0.002811123867 0.0048312074336 0.0046750316406 0.0045256922413 0.0043829114154 0.0042464460546 0.0041160103679 0.0039912990562 0.0038719697936 
0.0037577361669 0.0036483142915 0.0035434602822 0.0034429934749 0.0033467122967 0.0032544065648 0.003165860693 0.0030808634894 0.0029991601237 
0.0029205786966 0.0028449493769 0.0027721365075 0.0047278883753 0.0045771115909 0.0044328251847 0.0042947777816 0.0041627164868 0.0040364035245 
0.0039155462672 0.0037998356067 0.0036889858714 0.0035827448802 0.0034808956345 0.0033832214107 0.0032895531119 0.0031996929841 0.0031134378904 
0.0030305750833 0.0029508872973 0.0028742084915 0.0028003711632 0.0027292576756 0.0046209390714 0.0044756601287 0.0043365616295 0.0042033553645 
0.0040758264441 0.0039537239414 0.0038368035477 0.003724785702 0.0036173905001 0.0035143874376 0.0034155670492 0.0033207422858 0.003229738986 
0.0031423691248 0.0030584482433 0.002977767242 0.002900146021 0.0028254178344 0.0027534290024 0.0026840766492 0.0045135349285 0.0043737308378 
0.0042397703301 0.0041114018469 0.0039883935925 0.0038705196661 0.0037575387275 0.0036491991812 0.0035452446862 0.0034454775576 0.0033496933702 
0.0032577128009 0.0031693705608 0.003084490355 0.003002894636 0.0029244050922 0.0028488493822 0.0027760815933 0.0027059627961 0.0026383848386 
0.0044083499451 0.0042738808631 0.0041449466174 0.0040213031397 0.003902714503 0.0037889707324 0.0036798435626 0.0035751086794 0.0034745381975 
0.0033779418173 0.0032851373476 0.0031959553353 0.0031102264985 0.0030277932758 0.0029484856014 0.0028721520224 0.0027986348235 0.0027277992147 
0.0026595245945 0.0025936964518 0.0043072416828 0.0041778843017 0.0040537678687 0.0039346525826 0.0038203173882 0.0037105556704 0.0036051530685 
0.0035039059582 0.0034066085625 0.0033130887753 0.0032231713779 0.0031366969863 0.0030535110712 0.0029734525114 0.0028963787977 0.0028221472803 
0.002750611767 0.0026816535016 0.0026151659835 0.0025510280626 0.004211221906 0.0040867160297 0.0039671713409 0.0038523558265 0.0037420714846 
0.0036361052139 0.0035342668623 0.0034363655833 0.003342210467 0.0032516454371 0.0031645029587 0.0030806404423 0.0029998938391 0.002922135978 
0.0028472166511 0.0027750132323 0.0027053960818 0.0026382466652 0.0025734700539 0.002510952842 0.0041207447368 0.0040008180087 0.0038855879786 
0.0037748360873 0.003668376377 0.0035660115507 0.0034675581489 0.0033728369179 0.0032816774265 0.0031939299329 0.0031094472558 0.0030280774041 
0.002949683649 0.0028741288625 0.002801287722 0.0027310394336 0.002663257531 0.0025978458423 0.0025347049296 0.0024737301048 0.0040359113005 
0.0039202888621 0.0038091164309 0.0037021861545 0.003599332335 0.003500365144 0.003405116643 0.003313416395 0.0032251034398 0.0031400417607 
0.003058090593 0.0029791048834 0.0029029589142 0.0028295216748 0.0027586732628 0.002690291051 0.0026242706491 0.0025605104656 0.0024989267552 
0.0024394233273 0.0039566160822 0.0038450348851 0.003737660652 0.0036343211456 0.0035348555292 0.0034390877508 0.0033468667106 0.0032580271588 
0.0031724197706 0.0030899063907 0.0030103637698 0.0029336539786 0.0028596553901 0.0027882463086 0.0027193037402 0.0026527108225 0.0025883684092 
0.0025261850474 0.0024660876784 0.0024079811708 0.0038825580916 0.0037747607931 0.0036709491317 0.0035709680162 0.003474683934 0.0033819303505 
0.0032925633065 0.0032064275839 0.0031233813146 0.0030432915802 0.0029660424367 0.0028915051792 0.0028195651712 0.0027500963224 0.0026829812291 
0.002618101372 0.0025553706667 0.0024946915602 0.0024359942527 0.0023792134056 0.0038131184179 0.0037088713058 0.003608397128 0.0035115737004 
0.0034182726777 0.0033283710009 0.0032417042314 0.0031581332143 0.0030775140658 0.002999732092 0.0029246704126 0.0028522151509 0.0027822487713 
0.0027146540323 0.0026492923154 0.0025860603507 0.0025248598073 0.0024656164625 0.0024082640131 0.0023527395258 0.0037472002134 0.0036463029272 
0.0035489787702 0.0034551343048 0.0033646732494 0.0032774765845 0.0031933811404 0.00311225895 0.0030339661767 0.0029583913037 0.002885441139 
0.0028149877267 0.0027469241159 0.0026811204296 0.0026174574008 0.0025558158132 0.0024960993006 0.0024382419311 0.0023821789706 0.0023278617199 
0.0036830951523 0.0035854037766 0.0034911052501 0.0034001290833 0.0033123958649 0.0032278038533 0.0031461977511 0.0030674516491 0.0029914150451 
0.0029179913167 0.0028470756962 0.0027785637297 0.0027123453485 0.0026482898735 0.0025862811375 0.0025261888471 0.00246792712 0.0024114196806 
0.0023566166795 0.0023034769432 0.0036186095889 0.0035240591669 0.0034327248018 0.0033445655836 0.0032595234985 0.0031774953344 0.0030983441053 
0.0030219278528 0.0029481298194 0.0028768297272 0.0028079266916 0.0027413306283 0.0026769205328 0.0026145838873 0.0025541981204 0.0024956357302 
0.002438814115 0.0023836582192 0.0023301212089 0.0022781623131 0.0035515133395 0.0034601105843 0.0033717571157 0.0032864274514 0.0032040795714 
0.0031246274291 0.003047942794 0.0029738849467 0.0029023338792 0.0028331662113 0.0027662858588 0.0027015921963 0.0026389915319 0.0025783651379 
0.0025195971783 0.0024625721146 0.0024072068709 0.002353430282 0.0023011940823 0.0022504585586 0.0034801714532 0.0033919814356 0.0033066775512 
0.0032242453821 0.0031446533043 0.0030678301061 0.0029936571658 0.0029219976235 0.0028527263271 0.0027857264188 0.0027208843092 0.0026581205894 
0.002597340451 0.0025384380523 0.0024813073574 0.0024258467487 0.0023719769336 0.0023196269232 0.0022687436485 0.0022192925037 0.0057598710199 
0.0055678147405 0.0053845674958 0.005209701807 0.0050427790523 0.0048833936268 0.0047311298835 0.0045855932525 0.0044464246946 0.0043132911131 
0.0041858782287 0.0040639113335 0.0039471142478 0.0038352212789 0.0037279759937 0.0036251248608 0.0035264157554 0.0034316422361 0.0033405710461 
0.0032530089508 0.0056622978806 0.0054757154151 0.005297578747 0.0051274618887 0.0049649755411 0.0048097368248 0.0046613627071 0.0045194672824 
0.0043837152658 0.0042537817742 0.0041293761588 0.0040102212119 0.0038960719362 0.0037866681414 0.0036817432619 0.0035810850247 0.0034844360385 
0.0033915845467 0.0033023176466 0.0032164588878 0.0055601733385 0.0053792053904 0.0052062983579 0.0050410513684 0.0048831211127 0.0047321412248 
0.0045877552346 0.00444960313 0.004317364964 0.0041907169983 0.0040693999428 0.0039531516443 0.0038417114788 0.0037348590472 0.0036323399327 
0.0035339272511 0.0034393906589 0.0033485149474 0.003261111423 0.0031770126387 0.0054532557369 0.0052780364997 0.005110491569 0.0049502578297 
0.004797012263 0.0046504118825 0.0045101289431 0.0043758176972 0.0042471863766 0.0041239327467 0.0040057841102 0.0038925133183 0.0037838757087 
0.0036796438343 0.0035795897925 0.0034835005143 0.0033911336545 0.0033022968156 0.0032168122257 0.0031345169501 0.0053423875601 0.0051730163999 
0.0050109369792 0.0048558318294 0.0047073630461 0.0045652382133 0.004429148297 0.0042987644618 0.0041738181586 0.004054024194 0.0039391387799 
0.0038289101615 0.0037231265653 0.0036215702862 0.0035240308792 0.0034302869284 0.0033401411661 0.0032533938062 0.003169882318 0.0030894571234 
0.0052292159162 0.0050657380118 0.0049091820054 0.0047592411492 0.0046156040706 0.0044780062499 0.0043461464131 0.0042197396857 0.0040985106567 
0.0039822061615 0.0038705864249 0.0037634311189 0.0036605291096 0.0035616783739 0.0034666746416 0.0033753155315 0.0032874148321 0.0032027932124 
0.0031212918217 0.0030427704005 0.0051157299461 0.0049580736385 0.0048070005001 0.0046622051227 0.0045233937305 0.0043903077911 0.0042626702474 
0.0041402221579 0.0040226953988 0.003909870742 0.0038015181904 0.003697429932 0.0035974029824 0.0035012528231 0.0034087812096 0.0033198117826 
0.0032341594444 0.0031516616368 0.0030721781565 0.0029955692868 0.0050037524638 0.0048518230812 0.0047061268757 0.0045663764052 0.0044322997516 
0.0043036469925 0.0041801615027 0.0040616082515 0.0039477375352 0.0038383428592 0.0037332142112 0.0036321530517 0.003534967923 0.0034414827093 
0.0033515202282 0.0032649086136 0.0031814805046 0.003101094139 0.0030236053508 0.0029488867314 0.0048947379815 0.0047483519708 0.0046078639685 
0.0044730075412 0.0043435284518 0.0042191872026 0.0040997523712 0.0039849944726 0.0038746928191 0.0037686471157 0.0036666663836 0.0035685638016 
0.0034741600217 0.0033832884068 0.0032957831036 0.0032114864663 0.003130241752 0.0030519168899 0.0029763875994 0.0029035181365 0.004789628049 
0.0046485607112 0.0045130807981 0.004382929749 0.0042578822138 0.0041377051164 0.0040221773378 0.0039110935168 0.0038042452841 0.0037014518535 
0.0036025323019 0.0035073027078 0.0034156014788 0.0033272742008 0.0032421612011 0.0031601188006 0.0030810038994 0.0030046890371 0.0029310603028 
0.0028599880961 0.0046889506204 0.0045529695281 0.0044222784136 0.0042966294164 0.004175827177 0.0040596410091 0.0039478704125 0.0038403216506 
0.0037368022457 0.0036371443688 0.0035411750511 0.0034487295381 0.0033596461538 0.0032737831702 0.0031909923621 0.0031111400177 0.0030340874199 
0.0029597208122 0.0028879291654 0.0028185948468 0.0045929149873 0.004461775509 0.0043356417837 0.0042142917589 0.0040975352172 0.0039851630207 
0.0038769895457 0.0037728323242 0.0036725092789 0.0035758666461 0.0034827443522 0.0033929811149 0.0033064293123 0.003222949242 0.0031424068762 
0.0030646693784 0.0029896099362 0.0029171203624 0.0028471038872 0.0027794475417 0.0045014707313 0.0043749313991 0.0042531348627 0.0041358682257 
0.0040229681866 0.0039142350453 0.003809501293 0.0037085899858 0.0036113364037 0.0035175884305 0.0034272020259 0.0033400195072 0.0032559088882 
0.0031747329687 0.0030963630419 0.0030206684566 0.0029475343596 0.0028768603494 0.0028085553753 0.0027425094128 0.0044143360101 0.0042921715733 
0.0041744873742 0.004061111519 0.0039518806044 0.0038466212204 0.0037451694019 0.0036473663722 0.0035530535092 0.0034620867821 0.0033743336748 
0.0032896376467 0.00320788149 0.0031289352336 0.0030526588786 0.002978940834 0.0029076740573 0.0028387503611 0.0027720849316 0.0027075964115 
0.004330949142 0.0042129454516 0.0040991837042 0.0039895103524 0.0038837806332 0.0037818398137 0.0036835338921 0.0035887115335 0.0034972226178 
0.0034089337487 0.0033237126765 0.0032414286116 0.0031619470246 0.0030851576032 0.0030109138988 0.0029391104321 0.002869638164 0.0028024090832 
0.0027373362888 0.0026743463347 0.0042504239996 0.0041363980434 0.0040263842817 0.0039202581504 0.0038178852141 0.0037191397304 0.0036238589989 
0.0035319107364 0.0034431467086 0.0033574482087 0.0032746881779 0.0031947348156 0.0031174670621 0.0030427573765 0.0029704914069 0.0029005438373 
0.0028328281737 0.0027672465074 0.002703724317 0.0026421909091 0.0041715342725 0.004061347578 0.0039549558989 0.0038522536473 0.0037531363524 
0.0036574811425 0.0035651411782 0.003475987598 0.003389885112 0.0033067065673 0.0032263336269 0.0031486516763 0.0030735342153 0.00300086849 
0.0029305328401 0.0028624094764 0.0027964104784 0.0027324448394 0.0026704422128 0.0026103380927 0.0040928660124 0.0039864185551 0.0038835650469 
0.0037842178213 0.0036882895209 0.0035956651364 0.0035062100855 0.0034197924752 0.0033362975232 0.0032555953479 0.0031775770382 0.0031021264939 
0.0030291256245 0.0029584656397 0.0028900281234 0.0028237010185 0.0027593995164 0.0026970414875 0.0026365504485 0.0025778707891 0.0040130719668 
0.003910316645 0.0038109617732 0.0037149304999 0.0036221481662 0.0035325228887 0.0034459225722 0.0033622260424 0.0032813188615 0.0032030744041 
0.0031273829544 0.0030541385324 0.0029832341789 0.0029145596244 0.0028480068765 0.0027834687639 0.0027208634887 0.0026601123136 0.0026011443119 
0.0025439043419 0.0039311921667 0.0038321137538 0.0037362482718 0.0036435289694 0.003553894691 0.0034672602455 0.0033835116486 0.0033025269005 
0.0032241964898 0.0031484006422 0.0030750242753 0.0030039807681 0.0029351591098 0.002868462159 0.0028037897328 0.0027410447103 0.0026801458629 
0.0026210173892 0.0025635965843 0.0025078209769 0.0064150690575 0.0062023013508 0.0059992594471 0.0058054327401 0.0056203336851 0.0054435056709 
0.0052745047355 0.0051129040358 0.0049583289692 0.004810404248 0.0046687901249 0.0045331665469 0.0044032278043 0.0042786805464 0.0041592493303 
0.0040446695026 0.0039346684574 0.003829017441 0.0037274797102 0.0036298436486 0.0063033032232 0.0060967433121 0.0058994916813 0.0057110596452 
0.005531003039 0.0053588847973 0.0051942934842 0.0050368239969 0.0048861201126 0.0047418225881 0.0046036114029 0.0044711744576 0.0043442348106 
0.0042225046831 0.0041057066339 0.0039936084041 0.0038859485378 0.0037824929428 0.0036830196624 0.0035873311031 0.0061887678059 0.0059884695985 
0.0057970593186 0.0056140794583 0.0054391177975 0.0052717624805 0.005111631464 0.0049583439615 0.0048115601595 0.0046709332911 0.004536171092 
0.0044069771671 0.0042830663643 0.0041641916261 0.0040500820785 0.0039404997871 0.0038352118422 0.0037339827476 0.0036366069935 0.0035429124685 
0.0060713544637 0.0058773720717 0.0056918565174 0.0055143883478 0.0053445771472 0.005182043969 0.0050264220154 0.0048773704867 0.004734556493 
0.0045976535575 0.0044663871288 0.0043404734943 0.00421965151 0.0041036674299 0.0039922961234 0.0038852709842 0.0037823832464 0.003683417548 
0.0035881788365 0.0034964902809 0.0059515968038 0.0057639578962 0.0055843746838 0.0054124568076 0.0052478291543 0.0050901600581 0.0049391021009 
0.004794312631 0.0046555052676 0.0045223859954 0.0043946497062 0.0042720504474 0.0041543388833 0.0040412777742 0.003932642589 0.0038281973318 
0.0037277465255 0.0036310744472 0.0035380027997 0.0034483648168 0.0058305432724 0.0056492238853 0.0054755641046 0.0053092067282 0.0051497797014 
0.004996982563 0.0048504873666 0.004709987537 0.0045751946492 0.0044458330197 0.0043216368366 0.0042023629863 0.0040877768385 0.0039776525682 
0.0038717733566 0.0037699306559 0.0036719234628 0.0035775627875 0.0034866770946 0.0033991071405 0.0057094409647 0.0055343818914 0.0053666023902 
0.0052057494954 0.0050514970217 0.0049035399516 0.0047615840011 0.0046253402347 0.0044945426391 0.0043689339784 0.0042482644133 0.0041323032257 
0.0040208260448 0.003913628761 0.0038105005097 0.0037112520059 0.003615687787 0.0035236356579 0.0034349356051 0.0033494355425 0.0055895959163 
0.0054206902745 0.0052586820539 0.0051032415813 0.0049540667494 0.0048108805333 0.0046733995942 0.004541354013 0.0044144997543 0.0042925966866 
0.0041754109628 0.0040627233754 0.0039543302855 0.0038500259286 0.0037496256493 0.0036529470513 0.0035598019019 0.0034700437455 0.0033835102681 
0.0033000601071 0.0054720926495 0.0053091736148 0.005152785504 0.0050026253702 0.0048584137582 0.0047198835806 0.0045867782329 0.0044588538015 
0.0043358627018 0.0042175912541 0.0041038258631 0.003994356565 0.003888983766 0.0037875310445 0.0036898141934 0.0035956611385 0.0035049066568 
0.0034174023709 0.0033330046395 0.0032515710009 0.0053577155066 0.0052005868234 0.0050496373593 0.004904591947 0.0047651993805 0.0046311972954 
0.0045023467684 0.0043784258938 0.0042592033015 0.0041444745073 0.0040340452939 0.003927720359 0.0038253103376 0.0037266448471 0.003631553978 
0.0035398797356 0.0034514645115 0.0033661696788 0.0032838611281 0.0032044039365 0.0052469637296 0.0050954132539 0.004949715283 0.0048096047503 
0.0046748607262 0.004545231917 0.004420500825 0.0043004608822 0.004184889873 0.004073609522 0.0039664281406 0.0038631590889 0.0037636326099 
0.0036676875042 0.0035751609439 0.0034859045931 0.0033997714376 0.0033166328418 0.0032363608736 0.0031588315936 0.0051400762259 0.0049938809474 
0.0048532221114 0.0047178625708 0.0045875911651 0.004462181117 0.0043414287386 0.0042251333838 0.004113102905 0.00400515905 0.0039011231069 
0.0038008264469 0.0037041042529 0.0036107992358 0.0035207712017 0.0034338684114 0.0033499559925 0.0032689154471 0.0031906281425 0.0031149704388 
0.0050370510042 0.0048959863442 0.0047601647773 0.0046293626979 0.0045033921407 0.0043820396903 0.0042651168858 0.004152444001 0.0040438275638 
0.0039391066666 0.0038381233733 0.0037407064522 0.0036467032718 0.0035559737389 0.0034683693346 0.0033837549437 0.0033020039913 0.0032230016809 
0.0031466451609 0.0030728101104 0.004937668751 0.0048015230105 0.0046703382209 0.0045439106244 0.0044220703552 0.0043046202785 0.0041913871484 
0.0040822011903 0.0039768870209 0.0038752909355 0.0037772564776 0.0036826297731 0.0035912705845 0.0035030389474 0.0034177913201 0.0033354085821 
0.0032557610848 0.0031787425296 0.0031042525111 0.0030321870124 0.0048414852106 0.0047100594699 0.0045833233797 0.0044611017936 0.0043432351144 
0.0042295457215 0.0041198716041 0.0040140482625 0.0039119322749 0.0038133576358 0.0037181888569 0.0036262745073 0.0035374828783 0.00345168204 
0.0033687310342 0.0032885095313 0.0032109109603 0.0031358263759 0.0030631585836 0.0029928149015 0.0047478382674 0.0046209520846 0.0044985028029 
0.0043803365079 0.0042663001416 0.0041562475608 0.0040500204448 0.0039474632304 0.0038484402695 0.003752803596 0.0036604237919 0.0035711512097 
0.0034848594461 0.0034014171046 0.0033207055145 0.0032426021098 0.0031670050371 0.0030938083746 0.0030229232008 0.0029542665057 0.004655871453 
0.0045333824576 0.0044150820537 0.0043008425717 0.0041905265854 0.0040840064087 0.0039811270904 0.0038817593366 0.0037857540565 0.00369297978 
0.0036033062651 0.0035166142217 0.003432761976 0.0033516388224 0.0032731205885 0.0031970914555 0.0031234563987 0.0030521157334 0.0029829840293 
0.002915982796 0.0045646690341 0.0044464503822 0.0043321936972 0.0042217901921 0.0041151092833 0.0040120378678 0.0039124346434 0.0038161689956 
0.0037231199058 0.003633151485 0.003546146505 0.0034619759904 0.0033805244055 0.0033016761999 0.0032253127967 0.0031513280906 0.0030796307413 
0.0030101242874 0.0029427263374 0.0028773659387 0.0044733810668 0.0043593459867 0.0042490537934 0.0041423993826 0.0040392872881 0.0039396041241 
0.0038432238392 0.0037500200405 0.0036598817821 0.0035726763201 0.0034882889007 0.003406609179 0.0033275198032 0.0032509138161 0.0031766814863 
0.0031047187952 0.0030349410645 0.0029672577617 0.0029015893724 0.0028378689564 0.0043814133547 0.0042714985563 0.004165111034 0.0040621647282 
0.003962570795 0.0038662324564 0.0037730315945 0.0036828488622 0.00359558422 0.0035111040446 0.0034293052789 0.0033500835585 0.0032733295956 
0.0031989396751 0.00312681818 0.0030568641667 0.0029889975462 0.0029231331052 0.0028591968046 0.002797120497 0.0070621184822 0.0068291698964 
0.006606811249 0.0063944737364 0.0061916278006 0.0059977590671 0.0058124091695 0.0056351095994 0.0054654589567 0.0053030491867 0.0051475145926 
0.0049985015166 0.004855675397 0.0047187265227 0.0045873523874 0.0044612661393 0.004340184415 0.0042238633897 0.0041120489687 0.0040045135493 
0.0069373717538 0.006711296191 0.0064953483081 0.006288994008 0.006091731628 0.005903096104 0.0057226304076 0.0055499090576 0.0053845488083 
0.0052261631435 0.0050743946041 0.0049289239483 0.0047894253847 0.0046555965602 0.0045271460993 0.0044038170342 0.0042853411949 0.0041714593099 
0.004061948209 0.0039565843451 0.0068110027014 0.006591801691 0.0063822692655 0.0061819040141 0.005990246966 0.0058068482767 0.005631288234 
0.0054631653093 0.0053021081009 0.0051477663504 0.0049997992135 0.0048578867264 0.0047217255933 0.0045910413192 0.0044655546958 0.0043450014042 
0.0042291405033 0.0041177242239 0.0040105479523 0.0039073806187 0.0066829903576 0.0064706566112 0.0062675428876 0.0060731845546 0.0058871377473 
0.0057089905591 0.0055383475351 0.0053748410577 0.0052181213041 0.0050678318012 0.0049236778159 0.0047853479443 0.0046525584435 0.0045250367491 
0.0044025388104 0.0042847849084 0.0041715625977 0.004062631237 0.0039577854104 0.003856835305 0.0065536987097 0.0063482169147 0.0061515168476 
0.0059631365093 0.0057827016468 0.0056098159148 0.005444108969 0.0052852188504 0.0051328462247 0.0049866375862 0.0048463105771 0.0047115747168 
0.0045821611369 0.0044578162497 0.0043382912455 0.0042233510163 0.0041127763375 0.0040063485566 0.0039038637947 0.0038051494139 0.0064238296049 
0.0062251470764 0.0060348064476 0.00585241015 0.0056775557141 0.0055099077229 0.0053491170695 0.005194838957 0.0050467823169 0.0049046411802 
0.0047681311349 0.0046369835003 0.004510948003 0.0043897778043 0.0042732414192 0.0041611223812 0.0040531956584 0.0039492726411 0.0038491615891 
0.0037526878475 0.0062942409276 0.0061022639269 0.0059182183602 0.0057417208517 0.0055724117103 0.0054099552631 0.0052540363246 0.0051043353185 
0.0049605756201 0.0048224721806 0.0046897591482 0.004562181578 0.0044395025664 0.004321490286 0.0042079333322 0.0040986181839 0.0039933346047 
0.0038919134653 0.0037941665191 0.0036999284574 0.0061658358401 0.0059804595359 0.0058025980073 0.0056319014682 0.0054680407391 0.0053107018454 
0.0051595877985 0.0050144026306 0.0048748836193 0.0047407704577 0.00461180945 0.0044877621674 0.0043684073521 0.004253529326 0.0041429197032 
0.0040363829887 0.0039337259949 0.0038347872984 0.0037393827597 0.0036473666906 0.006039440427 0.005860497389 0.0056886785554 0.0055236599068 
0.0053651315768 0.0052128048174 0.0050664022162 0.0049256497454 0.0047903004941 0.0046601069406 0.0045348389332 0.0044142702509 0.0042981892377 
0.0041863964744 0.0040786944541 0.0039749010597 0.0038748368053 0.003778347173 0.0036852597418 0.003595432651 0.0059156745412 0.0057429839068 
0.0055770413616 0.0054175479131 0.00526421869 0.0051167807868 0.0049749783848 0.0048385554288 0.0047072847206 0.0045809287953 0.004459280375 
0.004342119126 0.0042292502141 0.0041204868361 0.0040156452305 0.0039145511713 0.0038170339701 0.0037229470309 0.0036321395071 0.0035444681361 
0.0057949790244 0.0056283395742 0.0054680889786 0.0053139512477 0.0051656726878 0.0050229865758 0.0048856569215 0.0047534501698 0.0046261515762 
0.0045035464585 0.0043854288306 0.0042715991184 0.0041618759874 0.004056075828 0.0039540343322 0.0038555838232 0.0037605636736 0.0036688373218 
0.0035802653 0.0034947054009 0.0056775761233 0.005516781256 0.0053620382375 0.0052130809309 0.0050696861962 0.0049316043492 0.0047986185832 
0.0046705059554 0.0045470726792 0.0044281147781 0.004313437823 0.0042028579425 0.0040962022187 0.003993302405 0.003893997743 0.0037981259753 
0.0037055530192 0.0036161372988 0.0035297478113 0.0034462515282 0.005563507012 0.0054083449006 0.0052589110382 0.0051149612434 0.0049762864441 
0.0048426635524 0.0047138811125 0.0045897415912 0.0044700600546 0.0043546449762 0.0042433158334 0.0041359018959 0.0040322385939 0.0039321694319 