# vtk DataFile Version 5.1
vtk output
ASCII
DATASET STRUCTURED_POINTS
DIMENSIONS 20 20 20
SPACING 0.005 0.005 0.005
ORIGIN 0.2189 -0.051172 0.02882
POINT_DATA 8000
FIELD FieldData 1
potential 1 8000 double
0.001783472681 0.0018196925625 0.0018568403323 0.0018950364396 0.0019343989987 0.0019750091534 0.0020169130566 0.0020601476909 0.0021047494369 
0.0021508191995 0.0021984577989 0.0022477620673 0.0022987968044 0.0023515884762 0.0024061441021 0.0024624949076 0.0025206054393 0.0025805140558 
0.0026422436713 0.0027057616029 0.001814729172 0.0018519713147 0.0018901715986 0.0019294757718 0.0019699981819 0.0020118408825 0.0020550587517 
0.0020996800898 0.0021457606535 0.0021933868816 0.002242655776 0.0022936744603 0.0023465167989 0.002401218055 0.0024577806504 0.0025162208329 
0.0025764998812 0.0026386325667 0.0027026631439 0.0027685853794 0.0018410809513 0.0018792987974 0.0019185000567 0.0019588361597 0.0020004426308 
0.0020434314587 0.0020878693751 0.002133794868 0.0021812688046 0.0022303500231 0.0022811460454 0.0023337591791 0.0023882777462 0.0024447275496 
0.0025031573643 0.0025635207895 0.0026257959323 0.0026899727053 0.0027561057085 0.002824252897 0.0018621206218 0.0019012593274 0.0019414147912 
0.0019827307776 0.0020253538749 0.0020694045592 0.0021149670957 0.0021620931157 0.002210842133 0.0022612661477 0.0023134614968 0.0023675370801 
0.0024235832947 0.0024816431164 0.0025417504522 0.0026038633905 0.0026679465407 0.0027339992292 0.002802081478 0.0028722854624 0.0018789392406 
0.0019189738545 0.0019600623617 0.002002338938 0.0020459418867 0.0020910054749 0.0021376231307 0.0021858702092 0.0022358033898 0.0022874754774 
0.0023409822605 0.0023964209368 0.0024538905485 0.0025134302128 0.0025750774651 0.0026387990217 0.0027045655146 0.0027724002052 0.0028423552783 
0.0029145501916 0.0018936146801 0.0019345514294 0.0019765874588 0.002019838345 0.0020644356021 0.002110505855 0.0021581671702 0.0022075042328 
0.0022585891069 0.0023114831651 0.0023662709216 0.0024230486419 0.0024819012761 0.0025428723055 0.0026060032855 0.0026712850354 0.0027387139872 
0.0028083232425 0.0028801788142 0.0029543895024 0.0019083451966 0.0019502168883 0.0019932315446 0.0020374981204 0.0020831296228 0.0021302571097 
0.002178998467 0.0022294602364 0.0022817346116 0.0023358862305 0.0023920020624 0.0024501639306 0.0025104337233 0.0025728842115 0.0026375405288 
0.0027044466384 0.0027736033248 0.0028450851847 0.0029189501621 0.0029953004949 0.0019247961549 0.0019676353717 0.0020116806254 0.0020570175568 
0.0021037478748 0.0021519997792 0.0022019067001 0.0022535866246 0.0023071439286 0.0023626450505 0.0024201829049 0.0024798277392 0.0025416298137 
0.0026056725062 0.0026719982892 0.0027406501901 0.0028116961582 0.0028851964868 0.0029612353405 0.0030399053287 0.0019439039031 0.0019877654034 
0.0020328911164 0.0020793617094 0.0021272729815 0.0021767472143 0.0022279269296 0.0022809372179 0.002335891627 0.0023928736002 0.0024519597666 
0.0025132194382 0.0025767068035 0.0026425000265 0.0027106647228 0.0027812720394 0.0028543908921 0.0029301039844 0.0030085044866 0.003089685744 
0.0019660670462 0.0020110138683 0.0020572902928 0.0021049726537 0.0021541492414 0.0022049501111 0.0022575160017 0.0023119854062 0.00236847412 
0.0024270716468 0.0024878494292 0.002550869708 0.0026162171922 0.0026839556317 0.0027541643356 0.0028269246827 0.0029023212483 0.0029804508321 
0.0030614342719 0.0031453437482 0.0019914171878 0.0020375269663 0.0020850376931 0.0021340081507 0.0021845476899 0.0022367850858 0.0022908640428 
0.0023469189016 0.0024050837132 0.0024654330208 0.0025280506912 0.0025930124304 0.0026603990624 0.0027302769512 0.002802721424 0.0028778534387 
0.0029557468703 0.0030365184269 0.0031203006474 0.0032071694322 0.0020200310657 0.0020673764465 0.0021161964425 0.0021665544513 0.0022185628497 
0.0022723494081 0.002328063155 0.0023858406981 0.0024458106826 0.0025080603763 0.0025726918011 0.0026397640818 0.0027093780077 0.002781591938 
0.0028564993635 0.0029342108425 0.0030148276825 0.0030984637126 0.0031852721833 0.0032753433143 0.0020519996731 0.0021006562093 0.0021508626986 
0.002202696326 0.0022562710526 0.0023117212407 0.0023691917104 0.0024288219885 0.0024907368854 0.0025550484318 0.0026218500713 0.0026912227457 
0.0027632586713 0.0028380256019 0.0029156173783 0.0029961424772 0.0030797021078 0.0031664374457 0.0032565145875 0.003350031498 0.0020873880159 
0.0021374194463 0.0021890848473 0.0022424705426 0.0022977056867 0.0023549232579 0.0024142657452 0.0024758778871 0.0025398838869 0.0026064006249 
0.0026755294913 0.0027473929017 0.0028220682386 0.0028996122788 0.0029801305399 0.0030636831416 0.00315043227 0.0032405037061 0.0033340953836 
0.0034313296523 0.0021260354124 0.0021774884689 0.0022306624099 0.0022856727449 0.002342643661 0.0024017243456 0.0024630595915 0.0025267684923 
0.0025929852686 0.0026618446117 0.0027334677397 0.0028079934796 0.0028854971024 0.002966047424 0.0030497085355 0.0031365506613 0.0032267109724 
0.0033203423158 0.0034176751681 0.0035188713837 0.0021672323518 0.0022201382413 0.0022748543555 0.0023315283082 0.0023902923551 0.0024513169096 
0.0025147147663 0.0025806079191 0.0026491359061 0.0027204458088 0.0027946789091 0.0028720111395 0.0029525150707 0.0030362367617 0.0031232344863 
0.0032135484693 0.0033073164354 0.0034047011198 0.0035059691743 0.0036113197622 0.0022093848077 0.0022637423484 0.0023200094475 0.0023783532769 
0.0024389412616 0.0025019285612 0.0025674230464 0.0026355346997 0.0027064242175 0.0027802392411 0.0028571645065 0.0029373541871 0.0030209063454 
0.0031078631502 0.003198268756 0.0032921484535 0.0033896221666 0.0034908642112 0.003596178653 0.0037058015757 0.0022499791382 0.0023057642581 
0.0023635424964 0.0024235267409 0.0024858866525 0.002550781578 0.0026183281578 0.0026886415518 0.0027618618613 0.0028381507705 0.0029177147752 
0.0030006807313 0.0030871901587 0.0031772880983 0.0032710108281 0.0033683786603 0.0034695146579 0.0035745949183 0.0036839411192 0.0037978152787 
0.0022861469373 0.0023432728741 0.0024024882754 0.0024640000372 0.0025280164124 0.0025946886129 0.0026641424803 0.0027365148258 0.0028119337963 
0.0028905564384 0.0029725741614 0.0030581414423 0.0031473728399 0.003240347763 0.0033371246449 0.0034377441682 0.0035423366271 0.0036510766094 
0.0037642812767 0.0038822325236 0.0023156910515 0.0023740413618 0.0024345421954 0.0024974408272 0.0025629300509 0.0026311818745 0.0027023473115 
0.0027765537325 0.0028539339568 0.0029346260521 0.0030188123945 0.0031066475239 0.0031982582852 0.0032937510999 0.0033932174786 0.0034967311019 
0.0036044459525 0.0037165404612 0.0038333157255 0.0039550261828 0.0020524250215 0.002094355637 0.0021374090076 0.0021816710425 0.0022272354896 
0.0022741821566 0.0023225757382 0.0023724785998 0.0024239453819 0.0024770638857 0.0025319042831 0.0025885502065 0.0026470620179 0.0027074867437 
0.0027698431938 0.0028341874055 0.0029005086681 0.0029688467664 0.0030392395914 0.0031116829793 0.0020852594748 0.0021283405978 0.0021725913089 
0.0022181125863 0.0022649928676 0.0023133248918 0.0023631812288 0.0024146206795 0.002467712413 0.0025225369413 0.0025791707509 0.0026376996592 
0.0026981926992 0.0027606986367 0.0028252350406 0.0028918621299 0.0029605664323 0.0030313834149 0.003104361478 0.0031795181706 0.0021151532092 
0.0021593657248 0.0022047909752 0.0022515320725 0.0022996942913 0.0023493736074 0.0024006532385 0.0024535934842 0.0025082669665 0.002564754751 
0.002623134685 0.0026834950878 0.0027459091637 0.0028104257505 0.0028770805127 0.0029459096844 0.0030169230174 0.0030901395063 0.0031656190149 
0.0032434213902 0.002141887326 0.0021872064551 0.0022337857669 0.0022817276894 0.0023311424888 0.0023821349148 0.0024347933098 0.0024891879146 
0.0025453980858 0.0026034946502 0.0026635630001 0.0027256904395 0.0027899575921 0.0028564090873 0.0029251122744 0.0029960714688 0.0030693066725 
0.0031448537846 0.0032227767091 0.0033031545949 0.0021660517441 0.0022124641198 0.0022601877901 0.0023093238404 0.0023599798708 0.0024122646089 
0.0024662738036 0.0025220935178 0.0025798018859 0.0026394716262 0.0027011923865 0.0027650482747 0.0028311250246 0.0028994702058 0.0029701499943 
0.0030431903503 0.0031186049088 0.0031964503901 0.0032767942992 0.0033597330609 0.0021887907527 0.002236311613 0.0022851886405 0.0023355318231 
0.0023874404571 0.0024410249883 0.0024963912817 0.0025536306158 0.0026128354268 0.00267407802 0.0027374485333 0.0028030335894 0.0028709152811 
0.0029411471139 0.0030138039901 0.0030889178272 0.0031665256736 0.0032466975314 0.0033294844078 0.0034150257334 0.0022114222854 0.002260071932 
0.0023101372473 0.0023617202044 0.0024149178668 0.0024698414721 0.0025265998082 0.0025852989072 0.0026460326954 0.0027088865309 0.0027739478466 
0.0028413047714 0.002911026808 0.0029832033234 0.0030578874502 0.0031351430621 0.0032150036667 0.0032975809638 0.0033829351315 0.0034711695663 
0.0022350799383 0.0022848973493 0.0023361941656 0.0023890659461 0.0024436043024 0.002499924785 0.0025581398982 0.0026183660955 0.0026807062639 
0.0027452429051 0.0028120753752 0.0028812926591 0.002952952479 0.0030271611715 0.0031039705903 0.0031834749118 0.0032657340626 0.0033508389285 
0.0034388859651 0.0035299811108 0.0022605519566 0.0023115853596 0.0023641638566 0.0024183838516 0.0024743328808 0.0025321269731 0.0025918840255 
0.0026537279026 0.0027177669759 0.0027840947598 0.0028528048897 0.0029239863179 0.0029977124154 0.0030740773156 0.0031531727897 0.0032350780856 
0.0033198794279 0.0034076800861 0.0034985867182 0.0035927111739 0.0022882944735 0.0023406017601 0.0023945280456 0.0024501613707 0.0025075978254 
0.0025669508397 0.0026283484347 0.0026919124393 0.0027577621478 0.0028259953203 0.0028967061463 0.002969980364 0.0030459135095 0.0031246068236 
0.0032061429292 0.0032906199622 0.0033781473194 0.0034688292484 0.0035627837689 0.0036601404607 0.0023185449125 0.0023721937621 0.0024275378276 
0.0024846559763 0.0025436601649 0.0026046667508 0.0026678031315 0.0027331960453 0.0028009744952 0.0028712332875 0.00294407547 0.0030195962487 
0.0030979003774 0.003179076976 0.0032632258217 0.0033504690522 0.003440905648 0.0035346560014 0.0036318829191 0.0037326823517 0.0023514147427 
0.0024064646651 0.0024632942703 0.0025219799926 0.0025826386843 0.0026453938802 0.0027103727741 0.0027777078748 0.0028475298933 0.0029199387564 
0.0029950628183 0.0030729772968 0.0031538092812 0.0032376441496 0.0033245957962 0.0034147868538 0.0035083363203 0.0036053665396 0.0037060576378 
0.0038105283177 0.0023869134134 0.0024434318392 0.0025018089325 0.0025621364774 0.00262453493 0.0026891267196 0.002756049103 0.0028254371675 
0.0028974191123 0.0029721197197 0.0030496530367 0.0031301178456 0.0032136379508 0.0033003099984 0.0033902526004 0.0034835889253 0.003580444534 
0.0036809586876 0.0037853374264 0.0038936869333 0.0024249372977 0.0024829753761 0.0025429616782 0.0026049953822 0.0026692065674 0.0027357202248 
0.0028046739937 0.0028762146827 0.0029504787591 0.0030275847573 0.0031076560902 0.0031908255157 0.0032771996966 0.0033668816789 0.0034600005993 
0.0035566608943 0.0036570156957 0.0037612184238 0.0038694835457 0.003981958673 0.0024651371155 0.0025247392934 0.0025863801674 0.0026501777347 
0.0027162544589 0.0027847587229 0.0028558339657 0.0029296199254 0.0030062527005 0.0030858695087 0.0031686033766 0.0032545992428 0.0033439728448 
0.0034368147096 0.003533267711 0.003633429047 0.0037374690577 0.0038455387461 0.003957883297 0.0040746721889 0.0025068017741 0.0025679926925 
0.0026313106007 0.0026968975314 0.0027648812671 0.0028354333963 0.0029086784785 0.002984760425 0.0030638309374 0.0031460308819 0.0032315036608 
0.0033204243972 0.003412898865 0.0035090254674 0.0036089362587 0.0037127340001 0.0038205861789 0.0039326651058 0.0040492348294 0.0041704901832 
0.0025487241499 0.0026115002597 0.0026765021153 0.0027438772836 0.0028137849457 0.0028863880769 0.0029618189891 0.0030402144275 0.0031217470581 
0.0032065633584 0.0032948240749 0.0033866963304 0.0034823022174 0.003581744956 0.0036851603232 0.0037926483719 0.0039043816512 0.0040205385431 
0.0041414145846 0.0042672182298 0.0025893097776 0.0026536463173 0.0027202947816 0.0027894383379 0.0028612314576 0.0029358426721 0.0030134230266 
0.003094114059 0.0031780782246 0.0032654652832 0.0033564768421 0.0034512502211 0.0035499158198 0.0036526242261 0.0037594926336 0.0038706283019 
0.0039862128535 0.0041064428049 0.0042316107054 0.0043619717461 0.0026269079839 0.0026927430057 0.0027609880172 0.002831815211 0.0029054213228 
0.0029819599284 0.0030616020293 0.0031444746778 0.0032307754554 0.0033206375362 0.0034142686014 0.0035118147709 0.003613430673 0.0037192551787 
0.0038294275196 0.003944076913 0.0040633948509 0.0041875862412 0.0043169593391 0.0044517675516 0.0026603143312 0.0027275707895 0.0027973223763 
0.0028697406615 0.0029450402768 0.0030233825933 0.0031049482115 0.0031898859235 0.0032783580427 0.0033705439686 0.0034666120689 0.003566740599 
0.0036710893606 0.0037798213258 0.0038930909647 0.0040110509701 0.0041339138288 0.0042618967308 0.0043953012596 0.0045343880779 0.0023224286845 
0.0023699999302 0.0024188732707 0.002469127158 0.0025208371251 0.0025740827287 0.0026289341948 0.0026854664014 0.0027437386745 0.0028038368861 
0.0028658226602 0.0029297723596 0.0029957480142 0.0030638055347 0.0031339821253 0.0032063394741 0.0032808888653 0.0033576859813 0.0034367732806 
0.0035181673331 0.0023577875005 0.0024066436425 0.0024568640982 0.0025085302356 0.0025617165491 0.0026165102407 0.0026729906428 0.0027312288806 
0.0027912969183 0.0028532787698 0.0029172449081 0.0029832718764 0.0030514288076 0.0031217761455 0.0031943450407 0.0032692200689 0.0033463982805 
0.0034259466424 0.003507913899 0.0035923331792 0.0023914083421 0.0024415513266 0.0024931131346 0.0025461734162 0.0026008290751 0.0026571631406 
0.0027152625856 0.0027752015173 0.002837058208 0.0029009165892 0.0029668512153 0.0030349463065 0.0031052722058 0.0031778902355 0.0032528462264 
0.0033302166812 0.003410012628 0.0034922960586 0.0035771387684 0.0036645759586 0.0024231644375 0.0024745872847 0.0025274859898 0.0025819463053 
0.0026380644022 0.0026959332019 0.0027556414344 0.0028172691599 0.0028809057657 0.0029466256095 0.0030145183874 0.003084664067 0.0031571400454 
0.0032320034979 0.0033093371298 0.003389183967 0.0034715870601 0.0035566074634 0.0036443050326 0.0037347745213 0.0024533878271 0.002506093376 
0.0025603333824 0.0026161995298 0.0026737856666 0.002733188039 0.0027945056647 0.0028578206567 0.0029232335687 0.0029908168531 0.0030606622909 
0.003132856986 0.0032074827272 0.003284600688 0.0033642994525 0.0034466274304 0.0035316394555 0.0036194020506 0.0037099914845 0.0038035111553 
0.0024827505566 0.002536753791 0.0025923488341 0.0026496367529 0.0027087097424 0.0027696660059 0.0028326071184 0.0028976328884 0.0029648348755 
0.0030342994158 0.0031061215034 0.0031803875216 0.0032571843038 0.0033365800098 0.0034186691571 0.003503511208 0.0035911676623 0.0036817267651 
0.0037752596983 0.0038718971271 0.0025120568258 0.0025673802333 0.0026243652585 0.0026831104105 0.0027437033693 0.0028062541867 0.0028708588185 
0.0029376293279 0.0030066635878 0.0030780538828 0.0031518951089 0.0032282833622 0.0033072941902 0.0033890370114 0.0034735767893 0.0035610060311 
0.00365138857 0.0037448212405 0.0038414166639 0.0039412713068 0.0025420718816 0.0025987555043 0.0026571710427 0.0027174142262 0.0027795793246 
0.0028437720925 0.0029100985865 0.0029786763893 0.0030496091401 0.0031229902171 0.0031989287549 0.0032775175736 0.0033588387054 0.0034430028059 
0.0035300882953 0.0036202037002 0.0037134298881 0.0038098742553 0.0039096412222 0.0040128564632 0.0025733978361 0.0026314859225 0.0026913785934 
0.0027531754602 0.0028169709565 0.0028828723345 0.0029509961237 0.0030214561139 0.0030943713306 0.0031698351725 0.0032479610159 0.0033288473798 
0.0034125830221 0.0034992832102 0.0035890454833 0.0036819883699 0.0037781956773 0.0038777874841 0.0039808878339 0.0040876281773 0.0026064338395 
0.0026659774126 0.0027274054846 0.0027908170987 0.0028563089898 0.0029239959747 0.0029939945289 0.0030664271756 0.0031414149866 0.0032190647342 
0.0032994880575 0.0033827798977 0.0034690598083 0.003558444101 0.003651030759 0.0037469375362 0.0038462821568 0.0039491944623 0.0040558051458 
0.0041662564588 0.0026414140702 0.0027024718413 0.0027655014055 0.0028305854492 0.0028978483894 0.0029673970389 0.0030393567943 0.0031138552474 
0.0031910190799 0.0032709602005 0.0033537907574 0.0034396243361 0.0035285896644 0.0036207907005 0.003716349891 0.0038153900285 0.0039180498853 
0.0040244580505 0.0041347664214 0.0042491295695 0.0026784432443 0.0027410686394 0.0028057521791 0.0028725847407 0.0029416896111 0.0030131813244 
0.0030871902204 0.0031638491632 0.0032432905521 0.0033256263389 0.0034109972038 0.0034995044705 0.0035912859214 0.0036864584613 0.0037851433925 
0.0038874892945 0.0039936315209 0.0041037091255 0.0042179190192 0.0043364006387 0.0027174886796 0.0027817366077 0.0028481327409 0.0029167730409 
0.0029877911986 0.0030613021796 0.0031374457414 0.0032163568027 0.0032981716984 0.0033830242974 0.0034710463022 0.0035623498138 0.0036570913429 
0.0037553787725 0.003857358283 0.0039631702939 0.0040729734169 0.0041869123829 0.0043052085379 0.0044279933973 0.0027583860538 0.0028243027215 
0.0028924593682 0.0029629657509 0.0030359557227 0.0031115574238 0.0031899082476 0.00327115006 0.0033554393135 0.0034429029302 0.0035336781784 
0.0036279082858 0.003725731723 0.0038272812866 0.0039327047279 0.0040421401469 0.0041557598561 0.0042737327084 0.0043962936607 0.0045236045354 
0.0028007679953 0.0028683900828 0.0029383495058 0.0030107671389 0.0030857720263 0.0031635107462 0.0032441337724 0.0033277867831 0.0034146214752 
0.0035047822013 0.003598409577 0.0036956629786 0.0037966801532 0.0039015983378 0.004010589731 0.0041237891474 0.0042413836139 0.0043635475466 
0.0044905322765 0.0046225320899 0.0028440335837 0.0029133816514 0.0029851610663 0.0030595108466 0.0031365627356 0.0032164871061 0.0032994227886 
0.0033855242893 0.003474954452 0.0035678632029 0.0036643943611 0.0037647442892 0.0038690447178 0.0039774318883 0.0040900861826 0.004207147789 
0.0043288196805 0.0044552856877 0.0045868260244 0.0047236423719 0.0028873060821 0.0029583807755 0.0030319859472 0.0031082660593 0.0031873806321 
0.0032694921625 0.003354752572 0.0034433197654 0.0035353559813 0.0036310350332 0.0037305154661 0.0038339860386 0.0039415886677 0.0040534756953 
0.0041698336613 0.0042908092025 0.0044166170508 0.0045474549816 0.0046836238456 0.0048253345583 0.0029295561171 0.0030023377955 0.003077744338 
0.0031559453123 0.0032370946975 0.0033213643793 0.0034089270792 0.0034999355988 0.0035945707952 0.0036929969609 0.0037953989894 0.0039019590025 
0.0040128223925 0.0041281923632 0.0042482321705 0.0043731098919 0.004503050863 0.0046382746545 0.0047790824657 0.0049257273409 0.0029697891409 
0.0030442363117 0.0031214119871 0.0032014751657 0.0032846162911 0.0033709980724 0.0034608008192 0.0035541793538 0.0036513413591 0.0037524495515 
0.0038577009585 0.0039672772946 0.0040813546208 0.0042001202901 0.0043237698985 0.0044524828282 0.0045864961263 0.0047260536376 0.004871463725 
0.0050230024696 0.0030073045233 0.0030833674103 0.0031622533117 0.0032441194995 0.0033291762569 0.0034175883828 0.0035095499503 0.0036052372843 
0.0037048297666 0.0038085255074 0.0039165107024 0.004028992385 0.0041461525618 0.0042681993557 0.0043953409531 0.004527781719 0.0046657712937 
0.0048095781934 0.0049595142605 0.0051158626115 0.0025924540211 0.0026455946048 0.0027002116089 0.0027563736131 0.0028141547708 0.0028736311443 
0.0029348755502 0.0029979602268 0.0030629681016 0.0031299626925 0.0031990175174 0.0032702052575 0.0033435890406 0.0034192335751 0.0034971832233 
0.0035775215013 0.0036602577911 0.0037454682841 0.0038332051804 0.0039234869177 0.0026308443689 0.0026854112566 0.0027415210038 0.0027992443715 
0.0028586693802 0.0029198598416 0.0029829038367 0.0030478762595 0.0031148562819 0.0031839273388 0.0032551582084 0.0033286282024 0.0034044084091 
0.0034825641759 0.0035631426108 0.0036462399485 0.0037318697021 0.0038201184652 0.0039110272341 0.0040046537075 0.0026682663065 0.0027242686134 
0.0027818821792 0.002841178395 0.0029022436839 0.0029651606981 0.0030300138372 0.0030968877952 0.0031658605102 0.0032370226545 0.0033104468878 
0.0033862176063 0.0034644116819 0.0035451005021 0.0036283298952 0.0037142133338 0.0038027640628 0.003894071695 0.003988196491 0.0040852027762 
0.0027046389558 0.0027620867467 0.0028212112393 0.0028820906303 0.0029448136299 0.0030094672865 0.003076142968 0.0031449285626 0.0032159083687 
0.0032891751039 0.0033648102326 0.0034428977186 0.0035235222703 0.0036067462856 0.0036926701443 0.0037813539511 0.0038728615753 0.0039672648464 
0.004064647681 0.0041650805412 0.0027401569679 0.0027990634911 0.0028597152762 0.0029221936378 0.0029865903847 0.0030529994351 0.0031215161769 
0.0031922295052 0.0032652373402 0.0033406323305 0.0034184976686 0.0034989280979 0.0035820086699 0.0036678134623 0.0037564465111 0.0038479725747 
0.003942472775 0.0040400208653 0.0041407072765 0.0042446413322 0.0027752263525 0.0028356141323 0.0028978095545 0.0029619127095 0.0030280120783 
0.0030962032977 0.0031665860452 0.0032392617251 0.0033143300507 0.0033918818716 0.0034720157028 0.0035548259114 0.0036404082164 0.0037288377596 
0.0038202294202 0.0039146593338 0.0040122079293 0.0041129757289 0.0042170548915 0.0043245651866 0.0028103576679 0.0028722467376 0.0029360244539 
0.0030017866235 0.0030696248315 0.0031396375348 0.0032119325062 0.0032866116569 0.003363784612 0.0034435472311 0.0035260038544 0.0036112538593 
0.00369938564 0.0037905211231 0.0038847412124 0.0039821536544 0.0040828440969 0.0041869190645 0.0042944963222 0.0044057080159 0.0028460590875 
0.0029094908494 0.0029748886916 0.0030423521209 0.0031119736476 0.0031838616854 0.0032581217613 0.0033348632987 0.003414203118 0.0034962442043 
0.0035810940565 0.0036688600241 0.0037596404862 0.0038535545869 0.0039507043474 0.0040511931963 0.0041551393529 0.0042626600801 0.0043738674455 
0.0044889043881 0.0028827660736 0.0029477827819 0.0030148478557 0.0030840624116 0.0031555243954 0.0032293425003 0.0033056312703 0.0033845091128 
0.0034660959677 0.003550491856 0.0036378251332 0.0037282007597 0.0038217216081 0.0039185277099 0.0040187076009 0.0041224175212 0.0042297538724 
0.0043408472553 0.0044558334405 0.0045748597988 0.0029207937996 0.0029874421229 0.0030562216442 0.0031272435688 0.0032006070936 0.0032764261401 
0.0033548172211 0.0034359065122 0.0035198201455 0.0036066650303 0.0036965764676 0.0037896658855 0.0038860409249 0.0039858556657 0.0040892157911 
0.004196271801 0.0043071426988 0.0044219674184 0.004540897878 0.0046640957283 0.0029603320149 0.003028661767 0.0030992208526 0.0031721022318 
0.0032474302285 0.0033253143817 0.0034058823396 0.0034892663054 0.0035755951882 0.0036649909001 0.0037575819984 0.0038534818677 0.003952850802 
0.0040558076866 0.0041624800076 0.0042730258089 0.0043875873957 0.0045063120055 0.0046293614809 0.004756919752 0.0030014592362 0.0030715230856 
0.0031439054113 0.0032187103208 0.0032960653467 0.0033760876492 0.0034589118443 0.0035446696408 0.0036335050239 0.003725535622 0.0038209158073 
0.0039197647833 0.0040222363426 0.0041284635853 0.0042385894845 0.0043527787715 0.0044711858131 0.0045939779155 0.0047213340244 0.0048534305559 
0.003044129515 0.0031159693035 0.0031902273992 0.0032670103736 0.003346455181 0.0034286808086 0.0035138314093 0.0036020470591 0.0036934671507 
0.0037882395535 0.0038865122576 0.0039884101953 0.0040941043744 0.0042037299121 0.0043174511826 0.0044354270155 0.0045578429047 0.0046848635751 
0.0048166946208 0.004953528252 0.0030881697693 0.0031618281598 0.0032380042732 0.0033168128626 0.0033983977296 0.0034828874417 0.0035704253072 
0.0036611605685 0.0037552601261 0.0038528553604 0.0039541002266 0.0040591598903 0.0041681835541 0.0042813358187 0.0043987762961 0.0045206834602 
0.0046472360514 0.0047786447842 0.0049151164197 0.0050568665047 0.0031332560822 0.0032087639966 0.0032868923723 0.0033677712705 0.0034515313396 
0.0035383299272 0.0036283066055 0.0037216324568 0.0038184644665 0.003918952984 0.0040232595253 0.004131558157 0.0042440062621 0.0043607643054 
0.0044820442284 0.0046079951282 0.0047388339448 0.0048747566767 0.0050160270936 0.0051628494874 0.0031789145868 0.0032562921425 0.0033363950427 
0.0034193588146 0.0035053224786 0.0035944598106 0.0036869222388 0.0037828712774 0.0038824800548 0.0039859105999 0.0040933238542 0.0042049223799 
0.0043208687681 0.0044413303498 0.0045665186278 0.0046966082822 0.0048318255594 0.0049723763218 0.0051185541265 0.0052705821035 0.0032245197924 
0.0033037745898 0.0033858530277 0.0034709050969 0.0035590912508 0.0036505791455 0.0037455337419 0.0038441238011 0.0039465216168 0.0040529137864 
0.0041634718957 0.0042784051259 0.0043978788267 0.0045220777028 0.0046512249034 0.0047855036222 0.0049251599109 0.0050704123012 0.0052215819001 
0.0053789012883 0.0032693980565 0.003350513373 0.0034345554699 0.003521695042 0.0036120933861 0.0037059145898 0.0038033419084 0.0039045598411 
0.0040097477272 0.004119101752 0.0042327967905 0.0043510523584 0.0044740453453 0.0046019747707 0.0047350829869 0.0048735679057 0.0050176844448 
0.0051676763399 0.0053238706622 0.0054865346298 0.0033129139148 0.003395864591 0.0034818554258 0.0035710410923 0.0036636169929 0.0037597453764 
0.0038596277006 0.0039634282783 0.0040713700964 0.0041836343912 0.0043004352896 0.004421972749 0.0045484534353 0.0046801005236 0.0048171395289 
0.0049598137695 0.0051083762965 0.0052631175447 0.0054243226295 0.0055923564632 0.0033546436784 0.0034393985129 0.003527296743 0.0036184952517 
0.0037132031147 0.0038115927001 0.0039138711652 0.0040202259387 0.0041308695044 0.0042459942063 0.0043658328414 0.0044905954342 0.0046205039462 
0.0047557948927 0.0048967161937 0.0050435272967 0.0051964928505 0.0053559382479 0.0055221763143 0.0056955392785 0.0028617474527 0.0029203842019 
0.0029806602758 0.0030426430963 0.0031064079756 0.003172024691 0.0032395739474 0.0033091288968 0.0033807703573 0.0034545674218 0.0035305937887 
0.0036089253446 0.0036896317077 0.0037727771485 0.0038584174893 0.0039466415598 0.0040374862853 0.0041310251221 0.0042273097234 0.0043263814709 
0.0029034443405 0.0029636470827 0.0030255614233 0.0030892610826 0.0031548259778 0.0032223276453 0.0032918472139 0.0033634665347 0.0034372673302 
0.0035133347802 0.0035917384766 0.0036725632933 0.0037558821864 0.0038417684163 0.0039302804128 0.0040215209919 0.0041155199219 0.0042123675854 
0.0043121257158 0.0044148496471 0.0029446825842 0.0030064684655 0.0030700433486 0.0031354788337 0.0032028576185 0.0032722640828 0.003343779737 
0.003417494731 0.0034934903426 0.00357186007 0.0036526785819 0.0037360334095 0.0038220075112 0.0039106805096 0.0040021111293 0.0040964164045 
0.0041936298667 0.0042938510657 0.0043971503955 0.0045035975994 0.002985404241 0.0030487926132 0.0031140450072 0.0031812391763 0.0032504605195 
0.0033217947386 0.0033953352241 0.0034711719808 0.0035493941851 0.00363009858 0.0037133656426 0.0037992924482 0.0038879617379 0.0039794491267 
0.0040738631184 0.0041712877655 0.0042717761529 0.0043754353755 0.004482350872 0.0045925983258 0.0030257275535 0.0030907401818 0.0031576970933 
0.0032266701515 0.0032977583078 0.0033710535047 0.0034466470808 0.0035246381015 0.0036051186393 0.0036881959289 0.0037739557707 0.0038624950336 
0.0039539059479 0.0040482746478 0.0041457142185 0.0042463102976 0.0043501452636 0.0044573213395 0.0045679238936 0.0046820772048 0.0030659017381 
0.0031325687353 0.0032012477821 0.0032720368439 0.0033450267405 0.0034203135358 0.0034979998066 0.0035781825049 0.0036609695714 0.0037464651411 
0.0038347619975 0.0039259660852 0.0040201796869 0.0041174895248 0.00421802339 0.0043218732232 0.0044291298349 0.0045399080569 0.0046543086096 
0.0047724630009 0.0031062554679 0.0031746015094 0.0032450423957 0.0033176816412 0.0033926135848 0.0034699369131 0.0035497605881 0.0036321863384 
0.0037173294817 0.0038052993305 0.0038961973727 0.0039901321925 0.0040872057651 0.0041875467058 0.0042912573471 0.004398447346 0.0045092246722 
0.0046237083191 0.0047420194341 0.0048643102269 0.0031471296039 0.0032171892911 0.0032894323963 0.0033639653719 0.0034408839413 0.0035202958235 
0.0036023107136 0.003687038768 0.0037746039499 0.0038651116766 0.0039586813615 0.0040554266655 0.0041554572675 0.0042589108429 0.0043658927129 
0.0044765251884 0.0045909403443 0.0047092684155 0.0048316238605 0.0049581846203 0.0031888232754 0.0032606394914 0.0033347311818 0.0034112059784 
0.0034901638401 0.0035717164124 0.003655983585 0.0037430823681 0.0038331399756 0.0039262650948 0.0040225911228 0.0041222385778 0.0042253200039 
0.0043319870863 0.0044423425123 0.0045565551283 0.0046747392119 0.0047970423286 0.0049235929715 0.0050545853564 0.0032315699448 0.0033051873533 
0.0033811783249 0.0034596400103 0.0035406931212 0.0036244523656 0.0037110390395 0.0038005774257 0.003893202672 0.0039890318696 0.0040882060707 
0.0041908492516 0.0042970824975 0.0044070763179 0.0045209487588 0.0046388634342 0.0047609509242 0.0048873761849 0.0050182919148 0.0051538799424 
0.0032755098643 0.0033509724741 0.0034289057896 0.0035094132896 0.0035926225001 0.0036786479484 0.0037676204828 0.0038596748741 0.0039549496472 
0.0040535722382 0.0041556865047 0.0042614150656 0.0043709355744 0.0044843757515 0.004601882862 0.0047236339367 0.0048497723435 0.0049804799299 
0.0051159283519 0.0052562970703 0.0033206919234 0.0033980468778 0.0034779737938 0.0035605780877 0.0036459979281 0.0037343540483 0.0038257833819 
0.0039204263695 0.0040184293405 0.00411993293 0.0042250789877 0.0043340169476 0.0044469175991 0.0045639254696 0.0046851934778 0.0048109184731 
0.0049412643943 0.0050764098051 0.0052165530921 0.0053618854481 0.0033670651109 0.003446351813 0.0035283162152 0.0036130693112 0.0037007527507 
0.0037915009263 0.0038854489907 0.0039827509365 0.0040835562544 0.0041880224546 0.0042963014744 0.0044085451288 0.0045249311782 0.0046456237803 