# vtk DataFile Version 5.1
vtk output
ASCII
DATASET STRUCTURED_POINTS
DIMENSIONS 10 10 10
SPACING 0.01 0.01 0.01
ORIGIN 0.2214 -0.048672 0.03132
POINT_DATA 1000
FIELD FieldData 1
potential 1 1000 double
0.0083416152138 0.008034873411 0.0077242014564 0.0074116812172 0.0070976929996 0.0067839102434 0.0064744691315 0.0061739004199 0.0058844716118 
0.0056058661866 0.0091577370265 0.0087999590242 0.0084382272876 0.0080749461569 0.0077115828886 0.0073505656837 0.0069966577164 0.0066542366764 
0.0063249832975 0.0060084858639 0.010020616122 0.009603625961 0.0091828147378 0.0087616438004 0.0083424670542 0.0079286993981 0.0075249990066 
0.0071357139234 0.0067619543398 0.006403722487 0.011005284921 0.010515809619 0.010023078617 0.0095320427888 0.0090462082114 0.0085698723201 
0.008107380723 0.0076621840965 0.0072362149028 0.0068298348391 0.012194925333 0.011613106134 0.011029738848 0.010451071697 0.0098822803204 
0.0093280096422 0.0087921797053 0.008278508911 0.0077892608812 0.0073254374583 0.013651989342 0.012952173659 0.012253339849 0.011563747159 
0.010890043016 0.0102373213 0.0096098867743 0.0090114562677 0.0084448142493 0.0079110031184 0.015434334699 0.014582395555 0.013736615086 
0.012906505965 0.012100302214 0.011323692943 0.010581720674 0.0098786957085 0.0092172415693 0.0085982217408 0.017597047296 0.016549520216 
0.015515030878 0.014507156131 0.013534329925 0.012603310925 0.011719533528 0.01088848324 0.010112261687 0.0093906340659 0.0201541994 
0.018857452264 0.017585933521 0.01635563837 0.015176333281 0.014055064887 0.012999863481 0.012016375558 0.01110486067 0.010263807461 
0.023064593592 0.021456771838 0.019889860982 0.01838534033 0.016954978525 0.015607482042 0.014351652631 0.013191907346 0.012126797899 
0.011153110882 0.010565919179 0.010181929559 0.0097914365956 0.0093977695824 0.0090036500003 0.0086120321249 0.0082262227583 0.0078493858444 
0.0074836991842 0.0071302399665 0.011598418046 0.011150259058 0.010695802609 0.010238872261 0.009783349368 0.0093325888689 0.0088903536575 
0.0084600573225 0.008043962361 0.0076432400979 0.012748024447 0.01222327575 0.011692735826 0.011161473486 0.010633817586 0.010114081524 
0.0096062982569 0.0091143549489 0.0086403506569 0.008185716755 0.014061982017 0.013443909744 0.012821309574 0.012200093085 0.011586066512 
0.010984255014 0.010399168367 0.0098345096612 0.0092929030718 0.0087756270191 0.015599471684 0.014865743048 0.014129249557 0.01339784018 
0.012678593723 0.011977212872 0.011298691165 0.010647100899 0.010025156376 0.0094345768696 0.017419047047 0.016540490027 0.015662374972 
0.014794656239 0.013945679855 0.013122428151 0.012330357805 0.011573980701 0.010856204263 0.010178576679 0.019576739513 0.018516215804 
0.0174616178 0.016424411832 0.015415374184 0.014442573703 0.013512546411 0.012629859299 0.011797540784 0.011016859897 0.022126398815 
0.020836541935 0.019559686081 0.01831198777 0.017105503432 0.015950424819 0.014853146051 0.013819258189 0.012851238327 0.01194937881 
0.025111803777 0.023533396859 0.021979162072 0.020469745884 0.019020664056 0.017643008063 0.016344965789 0.01513196538 0.014004856386 
0.012962874486 0.028584555353 0.026640705943 0.0247382355 0.022903881983 0.021156609348 0.019509784633 0.017972145655 0.016547832391 
0.015236421549 0.014034397268 0.012708612487 0.012252778399 0.011788656816 0.011320420726 0.010851864096 0.010386575656 0.009927930022 
0.0094789577901 0.0090420073568 0.0086187643514 0.013937966127 0.013406648703 0.012867328454 0.0123247495 0.011783957657 0.011248887306 
0.010723512211 0.010211165322 0.0097144854414 0.0092352645979 0.01532423418 0.014702476338 0.014073280199 0.013442793124 0.012816491372 
0.012199419542 0.011595871061 0.011009897145 0.010444156059 0.0099006365806 0.01690638132 0.016175069651 0.015437434027 0.014701085607 
0.013972700621 0.013258225416 0.012562731465 0.011890350607 0.011244197885 0.01062610664 0.018733094264 0.017867467742 0.016997601001 
0.016132959593 0.015281598154 0.014450344352 0.013645176235 0.012870628208 0.012129994758 0.011425455326 0.020857500007 0.019826244087 
0.018794218949 0.017772831679 0.016772016815 0.01580009788 0.014863658478 0.013967793542 0.013115942835 0.012310088212 0.023335048925 
0.022098694947 0.020866996281 0.019653507428 0.018470754262 0.017328720609 0.01623491777 0.01519478264 0.014211855605 0.013287776697 
0.026225399907 0.024733342974 0.023253678929 0.021804077493 0.02039985292 0.019052284867 0.01776993992 0.016558829816 0.015421985398 
0.01436025716 0.029592883881 0.02778179144 0.025994205341 0.024253475268 0.022578072562 0.020981629724 0.019474185014 0.01806097656 
0.01674433299 0.015523704472 0.03352157972 0.031308548198 0.029136569065 0.027035109032 0.025027551519 0.023130067605 0.021352838762 
0.019700843035 0.018174911905 0.016771561009 0.014734223849 0.014213883545 0.013683675417 0.013148367021 0.012612413262 0.012079874366 
0.011554455187 0.011039349069 0.01053716818 0.010049955623 0.016136297884 0.015531271478 0.014916340155 0.014297670567 0.013680353165 
0.01306914476 0.012468306457 0.011881501042 0.011311619209 0.010760911964 0.017720063683 0.017013686988 0.016298234048 0.015580602427 
0.014867129677 0.014163469629 0.013474331793 0.012804179975 0.012156095198 0.011532445449 0.01952136672 0.01869291087 0.017856534351 
0.017020662369 0.016192924675 0.015379940157 0.014587416048 0.013819972399 0.013080894732 0.012373137156 0.021583522436 0.020606985667 
0.019624608165 0.018646696175 0.017682226275 0.016739323629 0.015824457107 0.014942788105 0.014098154307 0.013293096848 0.023956251633 
0.022798998975 0.021639124959 0.020489417097 0.019360831608 0.018262948282 0.017203046179 0.016187041583 0.015218880493 0.014301076822 
0.026693999394 0.025315499551 0.023939253166 0.022581096158 0.021254655448 0.019971152825 0.018739096791 0.017564865144 0.016452529664 
0.015404204733 0.029858881901 0.028207346428 0.02656578659 0.024953948541 0.023388863277 0.021882900626 0.020446385241 0.019085893398 
0.017805315933 0.016606119527 0.033523170772 0.031533867324 0.029565654408 0.027643920284 0.025788768521 0.02401594343 0.022336617053 
0.020757294227 0.019281000322 0.017907967845 0.037776996735 0.035367140121 0.032995076075 0.030692822083 0.028485631715 0.026391697761 
0.024423114118 0.022586077341 0.020882688788 0.019310234937 0.016621091387 0.016044554908 0.01545659162 0.014862456317 0.014267060382 
0.013674899441 0.013089980662 0.012515770722 0.011955160685 0.011410484677 0.018170090567 0.017501725814 0.016821775796 0.016136994459 
0.015453021617 0.014775053633 0.014107745704 0.013455066082 0.012820235361 0.012205812414 0.019916140021 0.019138357667 0.018349730058 
0.017557802145 0.016769521044 0.015990860607 0.015227600934 0.014483987773 0.013763641852 0.013069310879 0.021893227945 0.020984514782 
0.020065959716 0.01914677844 0.018235206536 0.01733859017 0.016463087294 0.015613778109 0.014794452007 0.014008363175 0.024141482394 
0.023075310766 0.022001082685 0.020930014712 0.019872163902 0.018836071384 0.017828918123 0.016856417547 0.015922857955 0.015031199754 
0.026707378029 0.025450670687 0.024189047321 0.022936142646 0.021704117484 0.020502899165 0.019340943064 0.018224551204 0.017158345948 
0.016145240084 0.029642999252 0.02815549846 0.026667419307 0.025195955751 0.023755729457 0.022358748188 0.021014457631 0.019729956859 
0.018509928219 0.017357073454 0.03300922053 0.031239636551 0.029476995242 0.027742089121 0.026053054143 0.024423358748 0.022864175576 
0.021383136992 0.019984895472 0.018671560888 0.036876244709 0.034761768517 0.03266494217 0.030611500686 0.028623075277 0.026716478086 
0.024904235208 0.023193839933 0.021589309779 0.020091904968 0.041328841536 0.03879086629 0.036285526864 0.03384559378 0.031497468011 
0.029260990574 0.027149547608 0.025171079337 0.023328671968 0.021621035443 0.018355966347 0.017731971673 0.017094956586 0.016450642222 
0.015804272896 0.015160675759 0.014524150332 0.013898424321 0.01328665302 0.012691429973 0.020025765524 0.019304561595 0.018570555096 
0.017830288388 0.017089948934 0.016355188352 0.01563097684 0.014921571761 0.014230508656 0.013560601009 0.021901224837 0.021065386354 
0.020216860075 0.019363685385 0.018513281059 0.017672073578 0.016846143178 0.016040167363 0.015258061856 0.014502898983 0.024014528721 
0.023042104827 0.022057863499 0.021071473995 0.020091764008 0.019126485382 0.018182264287 0.017264434815 0.016377654103 0.015525023071 
0.026403016668 0.025267547554 0.02412187967 0.022977761943 0.02184567131 0.020734747764 0.019652673974 0.018605605381 0.017598319199 
0.016634173947 0.02910943937 0.02777861734 0.026440396853 0.025108999014 0.023796842052 0.022514844442 0.021271828242 0.020074724393 
0.01892858403 0.017836868593 0.032182447657 0.030617103794 0.029048404972 0.027493829988 0.025968503023 0.024485275787 0.02305417844 
0.02168292129 0.020376879448 0.019139272667 0.035677653465 0.033829186826 0.031983873995 0.030163280589 0.028385295167 0.026664975891 
0.025013987067 0.023440709901 0.021950603429 0.02054643374 0.039658992078 0.037468479336 0.035290468761 0.033151182831 0.031072812075 
0.029073313666 0.027165403164 0.025357899545 0.023656211683 0.022062277716 0.044200176059 0.041594954679 0.03901568158 0.036494956507 
0.034059692762 0.031730401435 0.02952198746 0.027443713792 0.025499553052 0.02368978743 0.019931462044 0.019268736062 0.01859151954 
0.017905771383 0.017217023899 0.016530377274 0.015850357721 0.015180931929 0.01452548441 0.013886825208 0.021696340445 0.020933407856 
0.020155804691 0.019370608256 0.018584299444 0.017802822254 0.017031410751 0.016274586448 0.015536136762 0.014819136602 0.023670658101 
0.022789747576 0.021894326246 0.02099277036 0.020092616629 0.019201176778 0.018324272994 0.01746704645 0.016633725266 0.015827640969 
0.025883782689 0.024863569252 0.023829482316 0.022791535767 0.021758872056 0.020739598295 0.01974070601 0.018767804467 0.017825936095 
0.016918497472 0.028370245798 0.027185017783 0.025987270017 0.024789001953 0.023601069773 0.022433005428 0.021292810783 0.020187083672 
0.019120953039 0.018097999008 0.031168827162 0.02978772765 0.028396332789 0.02700922649 0.025639321503 0.024297763095 0.022993820509 
0.021734852967 0.020526418452 0.019372406154 0.034323331342 0.032709044358 0.031088147221 0.029478155794 0.027894689295 0.026350691706 
0.024856825969 0.023421334317 0.02205006414 0.020746860827 0.037882364938 0.035990052625 0.034096620472 0.032223811644 0.030389342589 
0.028608930894 0.026894872729 0.025256080573 0.023698698791 0.022226235628 0.041901477605 0.039677131162 0.037459655035 0.035275114096 
0.033145723644 0.031089755655 0.029120590997 0.027248001609 0.025478212052 0.023814146899 0.046440715381 0.043819515698 0.041216589103 
0.038663803975 0.036187862332 0.03380993636 0.031545436795 0.029404857329 0.027393453995 0.025513055358 0.021344744173 0.020651811625 
0.019942990853 0.019224387599 0.018501748432 0.017780333932 0.017064875746 0.016359530259 0.015667877496 0.014992901409 0.023180687884 
0.02238605671 0.0215751939 0.020755298393 0.019933120041 0.019114771945 0.018305696944 0.017510627556 0.016733558823 0.015977788003 
0.025225164291 0.024311530047 0.023381593491 0.022443748973 0.021506296691 0.020576133243 0.019659547291 0.018761911861 0.017887672784 
0.017040412223 0.027505093507 0.026451924725 0.025382835838 0.024308012022 0.023236783571 0.022177463124 0.02113711018 0.020122115287 
0.019137262319 0.018186405939 0.030051580591 0.028834430039 0.027602364009 0.026367520419 0.025140904067 0.023932230022 0.022749803525 
0.021600495276 0.020489703379 0.019421410828 0.032899103526 0.031488974707 0.030065728538 0.028643916711 0.027236591824 0.025855087663 
0.024508946775 0.023205864484 0.021951765137 0.020750954474 0.036085800149 0.034448190857 0.032800411718 0.031159995268 0.029542383881 
0.027960826393 0.026426267708 0.02494728492 0.023530255935 0.022179514614 0.039653108119 0.037747100232 0.035835765806 0.033939707998 
0.032077325827 0.030264285231 0.028513028455 0.026833050075 0.025231051003 0.023711275223 0.043646840182 0.041424136492 0.039202462667 
0.03700720887 0.034860421534 0.032779914386 0.030779720393 0.028870465701 0.027058999939 0.025349116457 0.048114194548 0.045518062164 
0.042932279401 0.040387533209 0.037909945687 0.035520509328 0.033235437078 0.03106552336 0.029017471077 0.027094573003 0.022596527876 
0.02188152016 0.021149281469 0.02040603482 0.019657621481 0.018909429802 0.018166318569 0.017432606836 0.016712011254 0.016007680338 
0.024481113257 0.02366439478 0.022829951781 0.021985067163 0.021136584122 0.020290741737 0.019453129555 0.018628621174 0.017821396834 
0.017034908002 0.02656991834 0.025634959866 0.024681794495 0.023719467048 0.022755777104 0.021797930998 0.020852353773 0.019924581559 
0.019019253556 0.01814016237 0.028887175096 0.027814532334 0.026724004914 0.02562577327 0.024529240831 0.023442815994 0.022373657605 
0.021328381789 0.020311969036 0.019328524679 0.031460400278 0.030227231729 0.028976810792 0.027721217468 0.026471449076 0.025237311736 
0.024027228145 0.022848272071 0.021705942267 0.020604959123 0.0343195566 0.032899038387 0.031462624864 0.030024651158 0.028598071682 
0.027194266964 0.025822897668 0.024491886753 0.023207479468 0.021974262972 0.037496975934 0.035857726653 0.034204904911 0.032555549024 
0.030924939792 0.029326303166 0.02777069783 0.026266964196 0.024821845323 0.023440157163 0.041026805106 0.039132505963 0.037227977881 
0.035333715688 0.033467846105 0.031645724291 0.029879938382 0.028180307711 0.026554033146 0.025005930363 0.044945687335 0.042753206655 
0.040555977505 0.038378334237 0.036241818414 0.034163883141 0.032158797819 0.030237528936 0.028407581252 0.02667360182 0.049289309905 
0.04674991206 0.044213223389 0.041708389248 0.039260396764 0.036890070717 0.034613642151 0.032442530472 0.030384400492 0.028443594492 
0.023690473009 0.022960913776 0.022212890511 0.021452650539 0.020686086669 0.019918639633 0.019155254113 0.018400343194 0.017657739332 
0.016930717592 0.025603368701 0.024773377849 0.023924250276 0.023063305702 0.022197388184 0.021332793289 0.020475175358 0.019629512812 
0.018800111703 0.017990564359 0.027713526148 0.026767504765 0.025801716443 0.024825127435 0.023845483108 0.022870073261 0.021905378764 
0.020957027401 0.020029807521 0.019127660723 0.030042383026 0.028962222844 0.027862321451 0.02675276529 0.025642856012 0.024540859623 
0.023454480418 0.022389930785 0.021352514362 0.020346521171 0.032613819634 0.031378459802 0.03012364692 0.028861228762 0.027602103226 
0.026355986148 0.025131370992 0.023935383131 0.022773768115 0.021651430636 0.035453298923 0.034038326586 0.03260476961 0.031166616731 
0.029736581661 0.028325937472 0.026944347956 0.025599857053 0.024298913743 0.023046399311 0.038587614109 0.036964839622 0.035325148023 
0.033685044771 0.032059421623 0.030461317206 0.028901745543 0.027389699019 0.025932185532 0.024534380165 0.042044309971 0.040181501797 
0.038304298891 0.036432393529 0.034583242948 0.032771894926 0.031010879204 0.029310185407 0.027677362859 0.026117720729 0.045851008236 
0.043710935913 0.041560589992 0.039423420707 0.037319490745 0.03526612281 0.033277705278 0.031365238675 0.029536728974 0.027797496658 
0.050034239164 0.047575158911 0.045111587334 0.042670939514 0.040277084924 0.037950289286 0.035706188408 0.033556846779 0.031510784021 
0.029573100921 
