# vtk DataFile Version 5.1
vtk output
ASCII
DATASET STRUCTURED_POINTS
DIMENSIONS 50 50 50
SPACING 0.002 0.002 0.002
ORIGIN 0.2174 -0.052672 0.02732
POINT_DATA 125000
FIELD FieldData 1
potential 1 125000 double
0.00037043072405 0.00036888715786 0.00036735818261 0.00036584332073 0.00036434317685 0.00036285808878 0.00036139010174 0.00035993978165 0.00035850791523 
0.00035709474768 0.0003557017925 0.00035432833056 0.00035297343225 0.00035163594148 0.00035031416392 0.00034900653317 0.00034770874949 0.00034641956328 
0.00034513579919 0.00034385627989 0.00034257937339 0.00034130371636 0.0003400293763 0.00033875624396 0.00033748473923 0.00033621597681 0.00033495114678 
0.00033369126371 0.00033243782654 0.00033119211638 0.00032995512994 0.00032872774122 0.00032751084771 0.00032630492938 0.00032511028869 0.00032392686018 
0.00032275512674 0.00032159497953 0.0003204472353 0.00031931178315 0.00031818959608 0.00031708110316 0.00031598629339 0.00031490531249 0.00031383914087 
0.00031278624379 0.00031174631832 0.00031071800564 0.0003096999851 0.0003086915568 0.00037202207033 0.00037046521798 0.00036892352016 0.00036739619142 
0.00036588376741 0.00036438759086 0.00036290869655 0.00036144826456 0.00036000582824 0.00035858394249 0.0003571819051 0.00035579970104 0.00035443608151 
0.00035309046441 0.00035176017098 0.00035044432857 0.00034913842421 0.00034784095856 0.00034654930196 0.0003452615866 0.00034397677641 0.00034269340992 
0.00034141132302 0.00034013066741 0.0003388518425 0.00033757608649 0.00033630420414 0.00033503768192 0.00033377791999 0.00033252594937 0.0003312830251 
0.00033004983435 0.00032882716758 0.00032761535538 0.0003264151923 0.00032522604378 0.00032404826077 0.00032288206565 0.00032172803794 0.00032058644836 
0.00031945830089 0.00031834368129 0.00031724312444 0.00031615662508 0.00031508453614 0.00031402621216 0.00031298095153 0.00031194738227 0.00031092476091 
0.00030991132115 0.00037346799259 0.00037189811268 0.00037034367092 0.00036880441929 0.00036728135229 0.00036577434498 0.00036428559462 0.00036281589016 
0.00036136465029 0.00035993439079 0.00035852427838 0.00035713384407 0.00035576276382 0.00035440908213 0.00035307113894 0.00035174646111 0.00035043363452 
0.00034912825241 0.00034782880988 0.00034653364272 0.00034524110262 0.00034395046867 0.00034266130711 0.00034137370748 0.00034008827037 0.0003388059064 
0.00033752794272 0.00033625552763 0.00033499012276 0.00033373302781 0.00033248505394 0.00033124684655 0.00033001915972 0.00032880241689 0.00032759677565 
0.00032640254615 0.00032521922586 0.00032404765268 0.00032288765645 0.00032174018362 0.00032060574602 0.00031948547011 0.00031837888331 0.00031728625545 
0.00031620808564 0.00031514374739 0.00031409276594 0.00031305325216 0.00031202484443 0.00031100590968 0.00037473462723 0.00037315295855 0.00037158647536 
0.00037003660865 0.00036850344459 0.00036698683861 0.00036548926257 0.00036401106694 0.00036255217695 0.00036111440026 0.00035969727972 0.00035830003532 
0.00035692210424 0.00035556128986 0.00035421637583 0.00035288472829 0.00035156376364 0.00035025216138 0.00034894554888 0.00034764330669 0.00034634361405 
0.00034504612582 0.00034375032953 0.00034245631403 0.00034116492923 0.0003398768902 0.00033859355332 0.00033731629527 0.00033604632877 0.0003347846553 
0.00033353232324 0.00033229022616 0.00033105848564 0.00032983743512 0.00032862733892 0.00032742806397 0.00032624001705 0.00032506290901 0.00032389767048 
0.00032274446127 0.00032160430574 0.00032047794645 0.0003193651722 0.00031826601504 0.00031718135598 0.00031611063984 0.00031505336448 0.00031400792831 
0.00031297355336 0.00031194862517 0.0003757957156 0.00037420303195 0.00037262673373 0.00037106687272 0.00036952444979 0.00036800008062 0.00036649431909 
0.00036500845241 0.00036354370855 0.00036209954925 0.00036067646664 0.0003592733318 0.00035788957255 0.0003565230004 0.00035517199365 0.00035383416318 
0.00035250686628 0.00035118795398 0.00034987575643 0.00034856692507 0.00034726107807 0.00034595743341 0.00034465554788 0.00034335593375 0.00034205907375 
0.00034076616353 0.00033947844052 0.00033819694912 0.00033692318978 0.00033565810637 0.0003344024576 0.00033315689229 0.00033192179306 0.00033069733643 
0.00032948338731 0.00032827969075 0.00032708742469 0.00032590565576 0.00032473543696 0.00032357663466 0.00032243110188 0.00032129857827 0.00032017951123 
0.00031907440444 0.00031798317827 0.00031690590828 0.00031584179569 0.00031479023237 0.00031374928433 0.00031271812948 0.0003766341812 0.00037503220681 
0.00037344678357 0.00037187838996 0.00037032795984 0.00036879657233 0.00036728436617 0.00036579252088 0.0003643222449 0.00036287326656 0.00036144526137 
0.00036003768631 0.00035864924882 0.00035727803136 0.00035592175176 0.00035457874341 0.00035324627444 0.00035192169475 0.00035060309923 0.00034928944993 
0.00034797825024 0.00034666904818 0.00034536183481 0.00034405730268 0.00034275591141 0.00034145848575 0.00034016703723 0.00033888242312 0.0003376056771 
0.00033633794232 0.0003350797385 0.00033383174129 0.00033259410706 0.00033136671942 0.00033014958343 0.00032894288161 0.00032774653545 0.00032656073716 
0.00032538548599 0.00032422166698 0.00032307053155 0.0003219321315 0.0003208070561 0.00031969574059 0.00031859817744 0.00031751448464 0.00031644374638 
0.00031538578527 0.00031433851482 0.00031330113954 0.00037724310209 0.00037563318194 0.0003740398802 0.00037246430092 0.00037090724638 0.00036936998579 
0.00036785201806 0.00036635623506 0.00036488188424 0.00036342925229 0.00036199781006 0.00036058691116 0.00035919478128 0.00035781990872 0.00035646004485 
0.00035511275421 0.00035377593536 0.0003524469156 0.0003511233842 0.0003498041583 0.00034848918242 0.00034717514106 0.00034586349073 0.0003445546658 
0.00034324943003 0.00034194864986 0.00034065416552 0.00033936672193 0.00033808781508 0.00033681813371 0.0003355580882 0.0003343085907 0.00033306884503 
0.00033183951873 0.0003306201228 0.00032941062892 0.00032821081613 0.00032702139661 0.00032584189529 0.00032467336657 0.00032351696179 0.00032237282379 
0.00032124193251 0.00032012441209 0.00031902090948 0.0003179308369 0.00031685373481 0.00031578948562 0.00031473600582 0.00031369296049 0.00037762658845 
0.00037600950749 0.00037440997885 0.0003728287032 0.00037126663526 0.00036972483944 0.00036820263855 0.00036670384789 0.00036522686072 0.00036377169422 
0.00036233803804 0.00036092471495 0.00035953048585 0.00035815310021 0.00035679067992 0.00035544012236 0.00035409988636 0.00035276735884 0.00035143990385 
0.00035011655887 0.00034879677021 0.00034747951717 0.00034616421435 0.00034485195978 0.00034354367651 0.00034224028047 0.0003409434112 0.00033965404547 
0.00033837352519 0.00033710237051 0.00033584163178 0.00033459061098 0.00033334976805 0.00033211900654 0.00033089792127 0.00032968601375 0.00032848364874 
0.00032729074541 0.00032610741844 0.00032493474583 0.00032377338387 0.00032262449439 0.0003214880909 0.00032036471407 0.00031925513042 0.00031815919077 
0.00031707597054 0.00031600541244 0.00031494637739 0.00031389713535 0.00037779793442 0.00037617580784 0.00037457149345 0.00037298606629 0.00037142037096 
0.00036987459338 0.0003683508879 0.00036684988021 0.00036537126835 0.00036391490245 0.0003624800544 0.00036106553587 0.00035966997583 0.00035829110059 
0.00035692679345 0.0003555741607 0.00035423158872 0.00035289602591 0.00035156554489 0.00035023925734 0.00034891602023 0.00034759618399 0.00034627775104 
0.00034496273067 0.00034365211484 0.00034234680306 0.00034104770584 0.00033975702398 0.00033847533527 0.00033720415334 0.00033594259321 0.00033469094882 
0.00033344950522 0.00033221768251 0.00033099552932 0.00032978183438 0.00032857687048 0.00032738094223 0.00032619458001 0.00032501809377 0.00032385223476 
0.00032269814011 0.00032155642054 0.00032042772458 0.0003193126101 0.00031821098243 0.00031712182757 0.00031604552896 0.000314980697 0.00031392604326 
0.00037778165979 0.00037615645022 0.00037454897277 0.00037296069297 0.0003713928241 0.00036984522208 0.00036832041048 0.00036681855778 0.00036533874339 
0.000363881916 0.0003624467505 0.00036103190652 0.00035963600847 0.00035825664487 0.00035689113942 0.00035553713803 0.00035419255788 0.00035285492785 
0.00035152268241 0.00035019390567 0.00034886829896 0.000347545391 0.0003462257766 0.00034490843786 0.00034359589336 0.00034228904791 0.00034098907929 
0.00033969762115 0.0003384154621 0.00033714362534 0.00033588164301 0.00033462991782 0.00033338793766 0.00033215558534 0.00033093210009 0.00032971702775 
0.00032851034718 0.00032731201255 0.00032612229163 0.00032494250409 0.00032377256187 0.00032261414293 0.00032146758168 0.00032033397824 0.00031921369424 
0.00031810651297 0.00031701226189 0.00031593028238 0.00031486021993 0.00031380037027 0.00037760734906 0.00037598011325 0.00037437150211 0.0003727822224 
0.00037121262191 0.0003696655227 0.0003681403453 0.00036663870038 0.00036515987941 0.00036370367942 0.00036226897283 0.0003608544569 0.00035945848249 
0.00035807874548 0.00035671251825 0.0003553580761 0.0003540121481 0.00035267320569 0.00035133934739 0.00035000878993 0.00034868157753 0.00034735668893 
0.00034603435151 0.00034471662469 0.00034340294647 0.00034209521512 0.00034079461584 0.00033950258268 0.0003382206023 0.00033694842154 0.00033568649755 
0.00033443464979 0.0003331925341 0.00033195970409 0.00033073530135 0.00032951905781 0.00032831070168 0.0003271098263 0.00032591751126 0.00032473487911 
0.00032356152943 0.00032239919208 0.00032124843583 0.00032011012551 0.00031898494393 0.00031787281978 0.00031677359621 0.00031568659447 0.00031461111945 
0.00031354625454 0.00037731170498 0.00037568438324 0.00037407528327 0.00037248626673 0.00037091749834 0.00036937082414 0.00036784682375 0.000366345886 
0.00036486826206 0.00036341335722 0.00036197979759 0.00036056596313 0.00035917062308 0.00035779123163 0.00035642522824 0.00035506994037 0.00035372345799 
0.00035238377468 0.00035104814735 0.00034971641342 0.00034838747366 0.00034706163005 0.00034573847217 0.00034441877251 0.00034310545715 0.00034179729448 
0.00034049642222 0.00033920447557 0.00033792222691 0.00033665013894 0.00033538843407 0.00033413662934 0.00033289445417 0.00033166108515 0.00033043582686 
0.00032921853157 0.00032800862371 0.0003268059446 0.00032561140417 0.00032442581848 0.0003232494139 0.00032208377968 0.00032092914729 0.00031978688161 
0.00031865726592 0.00031754061158 0.00031643666038 0.00031534486105 0.00031426459407 0.00031319475347 0.00037693364283 0.00037530688974 0.00037369887668 
0.00037211100288 0.0003705437 0.00036899880389 0.000367476794 0.00036597761727 0.00036450137181 0.00036304770813 0.00036161545895 0.00036020291707 
0.00035880833565 0.00035742935726 0.00035606317965 0.00035470741853 0.00035336015142 0.00035201975323 0.0003506835663 0.00034935095166 0.00034802173624 
0.00034669506227 0.00034537151021 0.00034405168753 0.00034273708353 0.00034142945998 0.00034012873602 0.00033883702614 0.00033755475961 0.00033628270292 
0.0003350209857 0.00033376936608 0.00033252678768 0.00033129276871 0.00033006680615 0.00032884849437 0.00032763720447 0.00032643274599 0.00032523625623 
0.00032404794925 0.00032286883809 0.00032169999758 0.00032054219287 0.00031939614166 0.00031826265371 0.00031714177857 0.00031603361735 0.00031493727443 
0.00031385224277 0.00031277769627 0.00037651007157 0.00037488532307 0.00037327960271 0.00037169320787 0.00037012864947 0.00036858582168 0.00036706584507 
0.00036556907789 0.00036409489011 0.0003626430415 0.0003612122694 0.00035980076014 0.00035840709476 0.00035702795474 0.00035566156438 0.00035430562995 
0.00035295800832 0.00035161657171 0.00035027987603 0.00034894671995 0.00034761689949 0.0003462900707 0.00034496643785 0.00034364674024 0.00034233245934 
0.00034102440294 0.00033972517039 0.00033843373646 0.00033715176821 0.00033587978718 0.00033461728339 0.00033336527808 0.00033212223561 0.00033088745375 
0.00032966078364 0.00032844113673 0.00032722825555 0.00032602228387 0.00032482385402 0.00032363333962 0.00032245181104 0.00032128025588 0.00032011940762 
0.00031897034947 0.00031783314153 0.00031670852279 0.00031559599195 0.00031449539687 0.0003134060437 0.00031232675791 0.00037607635726 0.0003744544214 
0.00037285144612 0.00037126801673 0.0003697062919 0.00036816667385 0.00036664940065 0.00036515463842 0.00036368258924 0.00036223249588 0.00036080280246 
0.00035939227297 0.0003579990165 0.00035661995572 0.00035525334082 0.00035389703384 0.00035254860085 0.0003512064532 0.00034986937663 0.00034853561271 
0.00034720543356 0.00034587869026 0.00034455529501 0.00034323601749 0.00034192208718 0.00034061469785 0.00033931590613 0.00033802476329 0.00033674296186 
0.00033547062321 0.0003342083747 0.00033295565037 0.00033171172199 0.00033047595261 0.00032924761111 0.00032802642184 0.00032681217719 0.0003256046618 
0.00032440453959 0.00032321217219 0.00032202854159 0.0003208547453 0.00031969119787 0.00031853913093 0.00031739860742 0.00031627039988 0.00031515397985 
0.0003140489943 0.00031295524268 0.0003118713777 0.00037566417831 0.00037404572381 0.0003724455956 0.00037086620665 0.00036930769068 0.00036777104769 
0.00036625641323 0.00036476372271 0.0003632936485 0.00036184478692 0.00036041646963 0.00035900666896 0.00035761320163 0.00035623394843 0.00035486690245 
0.00035350988524 0.00035216090798 0.00035081786132 0.00034948001 0.00034814580286 0.00034681560685 0.00034548870908 0.00034416566112 0.00034284710597 
0.00034153383165 0.00034022708502 0.00033892762618 0.0003376378059 0.00033635582785 0.00033508342558 0.00033382022613 0.00033256655263 0.00033132139008 
0.00033008436641 0.00032885459918 0.00032763212666 0.00032641623174 0.00032520736831 0.0003240049429 0.00032281080949 0.00032162518164 0.00032044912338 
0.000319283587 0.00031812868208 0.0003169849396 0.00031585330763 0.00031473336143 0.00031362411587 0.00031252593839 0.000311437831 0.00037530004544 
0.00037368537899 0.0003720888506 0.00037051285226 0.00036895736607 0.00036742365277 0.00036591166037 0.00036442145226 0.00036295291653 0.00036150529827 
0.00036007721269 0.00035866759358 0.00035727364652 0.00035589398499 0.00035452630573 0.00035316816505 0.00035181827219 0.00035047430623 0.00034913566085 
0.00034780130071 0.00034647046196 0.00034514393618 0.00034382113122 0.00034250314055 0.00034119051978 0.00033988411956 0.00033858489262 0.00033729411748 
0.00033601302545 0.00033473998833 0.00033347588554 0.00033222082252 0.00033097426935 0.00032973545575 0.00032850373999 0.00032727933196 0.00032606167749 
0.00032485111805 0.00032364761554 0.00032245197266 0.00032126455999 0.00032008671972 0.00031891844369 0.00031776095381 0.00031661441914 0.00031547919517 
0.00031435549845 0.00031324283367 0.0003121403067 0.00031104783286 0.00037500446492 0.00037339269556 0.00037180040007 0.00037022809118 0.00036867593248 
0.00036714481017 0.00036563502074 0.00036414661584 0.00036267946899 0.00036123252493 0.00035980460503 0.0003583945962 0.00035700000182 0.00035561943949 
0.00035425033777 0.00035289094658 0.00035153971693 0.00035019464098 0.00034885529972 0.00034752017353 0.00034618918828 0.00034486267984 0.0003435405759 
0.00034222260547 0.00034091029323 0.00033960418635 0.00033830483996 0.00033701397079 0.00033573135315 0.00033445832572 0.00033319278718 0.00033193599411 
0.00033068742942 0.000329446942 0.00032821328184 0.00032698696368 0.00032576733967 0.0003245547337 0.00032334961843 0.00032215223822 0.00032096309761 
0.00031978325996 0.00031861338041 0.00031745330271 0.00031630417925 0.00031516540923 0.00031403838765 0.00031292149674 0.00031181515438 0.00031071810271 
0.00037479366664 0.00037318557439 0.00037159677501 0.00037002733205 0.00036847790432 0.00036694916796 0.00036544125489 0.00036395421927 0.00036248786241 
0.00036104087735 0.00035961313111 0.00035820202848 0.00035680633362 0.00035542420903 0.00035405386624 0.00035269290949 0.00035134000171 0.00034999358527 
0.00034865330842 0.00034731747629 0.00034598626329 0.00034465937568 0.00034333701439 0.00034201942502 0.00034070694701 0.00033940077455 0.0003381013125 
0.00033680992368 0.00033552620874 0.00033425167288 0.00033298458191 0.00033172555117 0.00033047516216 0.00032923225845 0.00032799639651 0.0003267676932 
0.00032554601744 0.00032433170395 0.00032312465882 0.0003219253302 0.00032073412895 0.0003195524674 0.00031838006995 0.00031721797189 0.00031606612541 
0.00031492490675 0.00031379416521 0.00031267367007 0.00031156275782 0.00031046149154 0.00037467798268 0.00037307381597 0.0003714880627 0.00036992154528 
0.00036837438091 0.00036684756292 0.00036534129 0.00036385513398 0.00036238862627 0.00036094177881 0.00035951276565 0.00035810057522 0.00035670320087 
0.00035531928364 0.00035394692293 0.00035258408353 0.0003512294601 0.00034988180624 0.00034854013005 0.00034720347183 0.00034587148054 0.0003445438961 
0.00034322101425 0.00034190310402 0.00034059038797 0.00033928342668 0.00033798363271 0.00033669101836 0.00033540582107 0.00033412850108 0.00033286063498 
0.00033159960251 0.00033034648449 0.00032910086298 0.00032786253645 0.00032663142392 0.00032540749139 0.00032419079087 0.00032298171394 0.0003217805039 
0.00032058740034 0.00031940348273 0.00031822906481 0.0003170645605 0.00031590994763 0.00031476558931 0.00031363144297 0.00031250741693 0.00031139322626 
0.00031028780279 0.00037466615399 0.00037306488275 0.00037148172743 0.00036991740897 0.0003683723185 0.00036684711788 0.000365341427 0.00036385587573 
0.00036238937161 0.0003609418404 0.00035951115079 0.0003580972255 0.00035669795227 0.00035531176878 0.00035393708458 0.00035257190124 0.00035121548136 
0.00034986605574 0.00034852272468 0.00034718480961 0.00034585185014 0.00034452299287 0.00034319926845 0.0003418805295 0.00034056696768 0.00033925936839 
0.00033795815259 0.00033666396922 0.00033537674217 0.00033409742575 0.00033282594121 0.00033156332784 0.00033030750881 0.00032905911337 0.00032781804295 
0.00032658422628 0.00032535757737 0.00032413858021 0.00032292729328 0.00032172373819 0.00032052849554 0.00031934236876 0.00031816572805 0.0003169984285 
0.00031584137075 0.00031469384996 0.00031355640756 0.00031242868537 0.0003113104951 0.00031020105442 0.00037476181172 0.00037316298146 0.00037158195925 
0.00037001963518 0.00036847625874 0.00036695186887 0.0003654468175 0.00036396134723 0.00036249409 0.00036104513687 0.00035961333763 0.00035819673522 
0.00035679508273 0.00035540632578 0.00035402892789 0.00035266125347 0.00035130245193 0.00034995112729 0.00034860577397 0.00034726593677 0.00034593138029 
0.00034460130492 0.00034327580025 0.00034195562349 0.0003406408418 0.00033933168095 0.00033802864212 0.00033673215833 0.00033544295973 0.00033416102933 
0.00033288677581 0.0003316200509 0.000330361964 0.00032911051189 0.00032786655822 0.00032662955832 0.00032540031634 0.00032417840159 0.00032296442543 
0.00032175857688 0.00032056176619 0.00031937319341 0.00031819382694 0.00031702374275 0.00031586321466 0.00031471265163 0.0003135718193 0.00031244044376 
0.00031131835658 0.00031020554425 0.00037496649667 0.00037336986363 0.00037179149872 0.00037023052044 0.00036868846941 0.00036716513066 0.00036566052697 
0.00036417424942 0.00036270628697 0.00036125542354 0.00035982148457 0.00035840252394 0.00035699799594 0.00035560613783 0.0003542259976 0.00035285540452 
0.00035149357792 0.0003501393657 0.00034879157437 0.00034744952921 0.00034611258322 0.00034478050899 0.00034345331303 0.00034213093754 0.00034081403262 
0.00033950242151 0.00033819717572 0.00033689833937 0.00033560647857 0.00033432144752 0.0003330439924 0.00033177401335 0.00033051233067 0.00032925725242 
0.00032801011088 0.00032676985401 0.00032553720231 0.0003243127026 0.00032309602927 0.00032188762948 0.00032068758491 0.00031949642036 0.00031831414986 
0.00031714153054 0.00031597812096 0.00031482415717 0.00031367972784 0.00031254511115 0.00031141951274 0.00031030307023 0.00037528127226 0.00037368683364 
0.00037211055218 0.00037055166273 0.00036901024455 0.00036748744669 0.000365982836 0.00036449618639 0.00036302623872 0.00036157375291 0.000360137257 
0.00035871573811 0.0003573076954 0.00035591254957 0.00035452880518 0.00035315495211 0.00035178988451 0.00035043241729 0.00034908145754 0.00034773665878 
0.00034639691604 0.0003450621342 0.00034373209538 0.00034240710947 0.00034108714176 0.00033977294928 0.00033846478919 0.00033716296039 0.00033586778063 
0.00033457937612 0.00033329849158 0.00033202470245 0.00033075829991 0.00032950059678 0.00032824898502 0.00032700519173 0.00032576937542 0.00032454144388 
0.00032332180571 0.00032211035554 0.00032090741213 0.00031971318335 0.00031852785849 0.0003173520539 0.00031618557928 0.00031502850404 0.00031388092817 
0.00031274285286 0.00031161388383 0.00031049386654 0.00037570658904 0.00037411441765 0.00037253977313 0.00037098234201 0.00036944273291 0.00036791982516 
0.00036641464083 0.00036492671969 0.00036345537781 0.00036200038408 0.000360561134 0.00035913620171 0.00035772471056 0.00035632602195 0.00035493845584 
0.00035356050872 0.00035219152395 0.00035083026477 0.0003494756606 0.00034812722519 0.00034678434739 0.00034544651438 0.00034411309035 0.00034278473262 
0.0003414614154 0.0003401434039 0.00033883150668 0.0003375261421 0.00033622707312 0.00033493438513 0.00033364941703 0.00033237157478 0.00033110121584 
0.00032983804009 0.00032858367895 0.00032733605757 0.00032609632743 0.00032486498949 0.00032364223139 0.00032242724852 0.00032122089958 0.00032002361873 
0.00031883540628 0.00031765651463 0.0003164868097 0.00031532648391 0.00031417599299 0.00031303424484 0.000311902078 0.00031077869214 0.00037624288618 
0.00037465279437 0.00037307966482 0.00037152418871 0.00036998516403 0.00036846242041 0.00036695708693 0.00036546748506 0.00036399441648 0.00036253745972 
0.00036109538366 0.00035966724065 0.00035825169345 0.0003568488667 0.00035545689871 0.00035407447754 0.00035270115682 0.00035133550683 0.00034997647724 
0.00034862345674 0.00034727618762 0.0003459336526 0.00034459619646 0.00034326386302 0.00034193647628 0.00034061426787 0.00033929791004 0.00033798820963 
0.00033668454456 0.0003353876965 0.00033409796612 0.00033281521867 0.00033154032398 0.00033027287194 0.00032901423034 0.00032776251143 0.00032651888423 
0.00032528351047 0.00032405654535 0.00032283804908 0.00032162814965 0.00032042743147 0.00031923589126 0.00031805376354 0.00031688097199 0.00031571748228 
0.00031456369619 0.00031341896992 0.00031228340716 0.00031115717651 0.00037688929304 0.00037530162631 0.00037373079286 0.00037217654304 0.00037063821521 
0.00036911627317 0.00036760986951 0.00036611934468 0.00036464430437 0.00036318421094 0.00036173856015 0.00036030639123 0.00035888706677 0.00035747956707 
0.00035608250177 0.00035469500881 0.00035331650916 0.0003519459864 0.00035058187037 0.00034922385497 0.00034787112452 0.00034652395546 0.00034518175515 
0.00034384435727 0.0003425120612 0.0003411850796 0.00033986367301 0.00033854867494 0.00033724032633 0.00033593848237 0.00033464329488 0.00033335567108 
0.00033207578407 0.00033080366348 0.00032953922371 0.00032828413518 0.00032703618835 0.00032579660399 0.00032456548247 0.00032334308543 0.00032212952645 
0.00032092515795 0.00031973022273 0.00031854425381 0.0003173679471 0.00031620134623 0.00031504394977 0.00031389608769 0.00031275769125 0.00031162810369 
0.00037764606419 0.00037606085002 0.00037449111473 0.00037293799182 0.00037140064827 0.00036987883897 0.00036837257345 0.00036688031138 0.0003654029227 
0.00036394018792 0.0003624912083 0.00036105523114 0.00035963106169 0.00035821847268 0.00035681622215 0.00035542319527 0.0003540389027 0.00035266236091 
0.00035129264969 0.00034992902247 0.00034857034176 0.00034721743762 0.00034586967132 0.00034452659706 0.00034318856241 0.0003418561058 0.00034052906327 
0.00033920824232 0.00033789417606 0.00033658675969 0.00033528626838 0.00033399307936 0.00033270772951 0.0003314302055 0.00033016062673 0.00032889929056 
0.00032764774259 0.00032640351966 0.00032516801174 0.00032394168272 0.00032272422269 0.00032151598159 0.00032031706397 0.00031912764753 0.00031794798537 
0.00031677773937 0.00031561743712 0.00031446658728 0.00031332512978 0.00031219307851 0.0003785132736 0.00037693015619 0.00037536228011 0.00037381023425 
0.00037227389543 0.000370752227 0.00036924504056 0.00036775174869 0.00036627184081 0.00036480593261 0.00036335304389 0.00036191274632 0.00036048380167 
0.00035906557227 0.00035765748134 0.0003562588537 0.00035486827819 0.00035348547405 0.00035210920258 0.00035073885582 0.00034937414499 0.00034801463927 
0.00034666012983 0.00034531081491 0.00034396669115 0.00034262788887 0.00034129470077 0.00033996742101 0.00033864672089 0.00033733299242 0.00033602631383 
0.0003347272741 0.00033343564935 0.00033215245372 0.00033087733422 0.00032961071846 0.00032835402195 0.00032710495657 0.00032586495922 0.00032463425707 
0.00032341257978 0.00032220034495 0.00032099763228 0.00031980449651 0.00031862134914 0.00031744806716 0.00031628449709 0.00031513074716 0.00031398657258 
0.0003128521048 0.00037949170823 0.00037791071364 0.00037634459773 0.00037479400918 0.00037325782953 0.00037173609596 0.00037022789892 0.00036873312689 
0.00036725071392 0.00036578155007 0.00036432463111 0.00036287946392 0.00036144507258 0.0003600211126 0.00035860695111 0.00035720177954 0.00035580472832 
0.00035441489019 0.00035303115055 0.00035165437065 0.00035028251663 0.00034891601501 0.00034755431973 0.00034619784268 0.0003448464392 0.00034350046843 
0.00034216001954 0.00034082584363 0.00033949840005 0.00033817748796 0.00033686407769 0.00033555819057 0.00033426029464 0.00033297081276 0.00033168992074 
0.00033041733462 0.00032915422619 0.00032790115724 0.00032665628245 0.00032542086801 0.00032419490333 0.00032297843982 0.00032177200547 0.00032057519879 
0.00031938869179 0.00031821217532 0.00031704551275 0.00031588908375 0.00031474255171 0.00031360549686 0.0003805826306 0.0003790033972 0.00037743909484 
0.00037588913045 0.00037435349446 0.00037283124889 0.00037132186377 0.00036982484564 0.00036834007712 0.00036686683641 0.0003654036934 0.00036395341847 
0.00036251347036 0.00036108356565 0.00035966250737 0.00035825081303 0.00035684654443 0.00035544926344 0.00035405820976 0.0003526733432 0.00035129368431 
0.00034991949467 0.0003485499928 0.0003471855026 0.00034582614069 0.00034447261174 0.00034312467724 0.00034178272214 0.00034044763626 0.00033911899309 
0.0003377979669 0.0003364848021 0.00033518029667 0.00033388392866 0.00033259648442 0.00033131838122 0.00033004910419 0.0003287895961 0.00032754053128 
0.00032630023212 0.00032506979057 0.00032384928091 0.00032263872748 0.00032143835784 0.00032024860778 0.0003190708537 0.00031790165413 0.00031674282205 
0.00031559407456 0.00031445482019 0.00038178584126 0.0003802072753 0.00037864392994 0.00037709475425 0.00037555873282 0.00037403595395 0.00037252458482 
0.00037102520378 0.00036953702625 0.00036806024785 0.00036659379019 0.00036513829589 0.0003636924198 0.00036225576944 0.00036082801681 0.00035940869415 
0.0003579968188 0.00035659191771 0.00035519324274 0.00035379995726 0.00035241189113 0.00035102916675 0.00034965140277 0.00034827832396 0.00034691079722 
0.00034554889285 0.00034419215837 0.00034284143785 0.00034149793685 0.00034016135635 0.00033883219444 0.00033751140163 0.00033619925778 0.00033489565064 
0.00033360132477 0.0003323168064 0.00033104156882 0.0003297762775 0.00032852173563 0.00032727629533 0.00032604135982 0.00032481659755 0.00032360236012 
0.0003223984987 0.00032120544129 0.0003200231609 0.00031885125647 0.00031769010148 0.00031653893226 0.00031539810889 0.00038310352329 0.00038152568268 
0.00037996249422 0.0003784134808 0.00037687691049 0.00037535261611 0.00037383904931 0.00037233695062 0.00037084515884 0.00036936387764 0.00036789253424 
0.00036643051997 0.00036497856373 0.00036353504086 0.00036210002014 0.00036067326865 0.0003592536118 0.00035784057221 0.00035643358854 0.00035503205214 
0.00035363500409 0.0003522433426 0.00035085634385 0.00034947458661 0.00034809778275 0.00034672625713 0.00034536038216 0.00034400064141 0.00034264792501 
0.00034130251289 0.00033996481407 0.00033863539942 0.00033731516771 0.00033600401154 0.00033470224174 0.00033341109273 0.00033212955354 0.00033085849517 
0.00032959742555 0.00032834789213 0.00032710826763 0.00032587908509 0.0003246605139 0.00032345321436 0.00032225728251 0.00032107234982 0.00031989830502 
0.00031873509525 0.0003175823955 0.00031644003258 0.0003845338243 0.00038295580758 0.00038139235846 0.00037984251175 0.00037830520709 0.00037677883402 
0.00037526230458 0.00037375624203 0.00037226005172 0.00037077356151 0.00036929662314 0.0003678287083 0.00036636997728 0.00036491938354 0.00036347716609 
0.00036204265797 0.00036061539167 0.00035919368336 0.00035777824236 0.00035636780794 0.00035496189846 0.00035356029019 0.00035216424723 0.00035077265083 
0.00034938600385 0.00034800422884 0.00034662874882 0.00034525907776 0.00034389660781 0.00034254123787 0.00034119426797 0.00033985629151 0.00033852727844 
0.00033720789745 0.00033589892841 0.00033460050496 0.00033331244341 0.00033203500602 0.0003307684526 0.00032951207994 0.00032826863464 0.00032703545843 
0.00032581328122 0.00032460256495 0.00032340367999 0.00032221612641 0.00032104005275 0.00031987511935 0.00031872123058 0.00031757782701 0.00038607414013 
0.00038449634267 0.00038293118073 0.00038137968105 0.00037983985854 0.00037831052932 0.00037679059208 0.00037528001972 0.0003737787649 0.00037228672268 
0.00037080378374 0.00036932968101 0.00036786357394 0.00036640590282 0.0003649562419 0.00036351405233 0.00036207824122 0.00036064851404 0.00035922413508 
0.00035780447649 0.0003563889435 0.00035497829377 0.00035357202984 0.00035217004024 0.00035077254067 0.00034938042976 0.00034799430105 0.00034661428181 
0.00034524117343 0.00034387574416 0.00034251907987 0.00034117146991 0.000339833574 0.00033850579939 0.00033718895803 0.00033588276248 0.00033458737595 
0.00033330341902 0.00033203106691 0.00033076978288 0.00032952145103 0.00032828377373 0.00032705786505 0.00032584387314 0.00032464207852 0.00032345224535 