# vtk DataFile Version 5.1
vtk output
ASCII
DATASET STRUCTURED_POINTS
DIMENSIONS 50 50 50
SPACING 0.002 0.002 0.002
ORIGIN 0.2174 -0.052672 0.02732
POINT_DATA 125000
FIELD FieldData 1
potential 1 125000 double
0.00032018745928 0.00031899289951 0.00031780496632 0.00031662297682 0.00031544722659 0.00031427784596 0.00031311633701 0.00031196326164 0.00031081939716 
0.00030968518682 0.00030856219298 0.00030745030935 0.00030634931482 0.00030525887738 0.00030417827707 0.00030310677338 0.00030204180859 0.00030098288936 
0.00029992801186 0.0002988767282 0.00029782814993 0.00029678157027 0.00029573735057 0.00029469563485 0.00029365693842 0.00029262227846 0.0002915927038 
0.00029056905493 0.00028955257277 0.0002885442544 0.00028754488088 0.00028655508853 0.00028557554579 0.00028460656845 0.00028364829377 0.0002827006123 
0.00028176385707 0.00028083783884 0.0002799232027 0.00027901981561 0.00027812837569 0.00027724925106 0.00027638237628 0.00027552776493 0.00027468629595 
0.00027385652993 0.00027303814995 0.00027222994715 0.00027143074118 0.00027063987562 0.00032156872549 0.00032036362704 0.00031916569498 0.00031797392014 
0.00031678858215 0.00031561067228 0.00031444083078 0.00031328011258 0.00031212828564 0.00031098762698 0.000309857905 0.00030873955674 0.00030763208081 
0.00030653559658 0.00030544854403 0.0003043707373 0.00030329943522 0.00030223391727 0.00030117264636 0.00030011460778 0.00029905939745 0.00029800625081 
0.00029695535032 0.00029590707234 0.00029486193019 0.0002938210639 0.00029278519838 0.00029175559692 0.00029073341132 0.00028971944398 0.0002887146817 
0.00028771962846 0.00028673484337 0.000285760526 0.00028479724172 0.00028384438918 0.00028290216733 0.0002819707191 0.00028105043886 0.00028014153223 
0.0002792447443 0.0002783601024 0.00027748806273 0.0002766285191 0.00027578173585 0.00027494709665 0.00027412392814 0.00027331100795 0.00027250766597 
0.00027171230791 0.00032282984356 0.00032161424994 0.00032040607838 0.00031920480911 0.00031801107193 0.00031682465442 0.00031564715443 0.00031447930061 
0.0003133207326 0.0003121737058 0.00031103787984 0.00030991328268 0.00030880017207 0.00030769751192 0.00030660457007 0.00030551996121 0.00030444304887 
0.00030337115054 0.00030230351599 0.00030123928375 0.00030017756779 0.00029911821319 0.0002980611799 0.00029700682487 0.00029595582739 0.00029490907533 
0.0002938677406 0.00029283280253 0.00029180548173 0.00029078680912 0.00028977739875 0.00028877771625 0.00028778830336 0.00028680943458 0.00028584115551 
0.00028488360856 0.00028393632819 0.00028299994475 0.00028207425601 0.00028115997185 0.00028025749431 0.00027936773472 0.00027849022764 0.00027762514462 
0.00027677286199 0.00027593278051 0.00027510444519 0.00027428616147 0.00027347758142 0.00027267724856 0.00032394249855 0.0003227172912 0.00032149930213 
0.00032028944872 0.00031908757148 0.00031789342066 0.00031670888384 0.000315534279 0.00031436969048 0.00031321676762 0.00031207547229 0.00031094555919 
0.00030982708475 0.00030871879564 0.00030762031634 0.00030653013636 0.00030544676594 0.00030436961853 0.00030329603193 0.00030222584015 0.00030115804069 
0.00030009277537 0.00029902995987 0.00029796995013 0.00029691364153 0.00029586177154 0.0002948155476 0.00029377614982 0.0002927445914 0.00029172164178 
0.00029070814755 0.00028970477709 0.00028871152162 0.00028772858634 0.00028675610566 0.00028579387542 0.00028484215804 0.00028390063275 0.00028297008599 
0.00028205052503 0.0002811427833 0.00028024743416 0.00027936426104 0.00027849321165 0.00027763501397 0.00027678911589 0.00027595503029 0.00027513132155 
0.00027431730482 0.00027351150569 0.0003248847649 0.000323650418 0.00032242430128 0.00032120617053 0.00031999662345 0.0003187960275 0.00031760480557 
0.00031642390846 0.00031525448943 0.0003140963298 0.00031295014428 0.00031181540255 0.00031069214038 0.0003095791117 0.00030847560937 0.00030738027868 
0.00030629161546 0.00030520847202 0.00030412995305 0.00030305411615 0.00030198097366 0.0003009103195 0.00029984212596 0.00029877710589 0.00029771585576 
0.00029665952859 0.00029560922037 0.00029456583711 0.00029353065809 0.0002925044066 0.00029148766612 0.0002904808967 0.0002894843424 0.00028849805314 
0.00028752183484 0.00028655535119 0.00028559957565 0.00028465364133 0.00028371837271 0.00028279358153 0.00028188078791 0.00028097971687 0.0002800907103 
0.00027921412347 0.00027834985915 0.00027749791471 0.00027665753932 0.00027582817204 0.00027500809318 0.00027419653443 0.00032564245191 0.00032440021882 
0.00032316635213 0.00032194095837 0.00032072457851 0.00031951796876 0.00031832118103 0.00031713511099 0.00031596087331 0.00031479848475 0.00031364798137 
0.00031250932036 0.00031138193723 0.00031026481306 0.00030915668893 0.00030805682164 0.00030696360594 0.00030587549295 0.00030479155032 0.00030371124806 
0.00030263332459 0.00030155771148 0.00030048471518 0.00029941520001 0.00029834975835 0.00029728920552 0.00029623534065 0.00029518890202 0.0002941507424 
0.00029312178317 0.00029210239496 0.00029109307487 0.00029009386364 0.00028910455205 0.00028812510058 0.00028715555714 0.0002861957823 0.0002852458581 
0.00028430576106 0.00028337614837 0.00028245803184 0.00028155140707 0.00028065672959 0.00027977430028 0.00027890408142 0.00027804612107 0.00027719954563 
0.00027636419732 0.00027553820736 0.00027472082126 0.00032620987037 0.00032496068728 0.00032371990186 0.00032248815161 0.00032126586855 0.00032005394097 
0.00031885194919 0.00031766210018 0.00031648397589 0.00031531803132 0.00031416413931 0.00031302218495 0.00031189120263 0.00031077051878 0.00030965890949 
0.00030855500123 0.00030745770595 0.00030636545045 0.00030527694469 0.00030419174059 0.00030311007454 0.00030202999402 0.00030095285833 0.00029987931248 
0.00029881020561 0.00029774639115 0.0002966895002 0.00029564018848 0.00029459970427 0.0002935685885 0.00029254708981 0.00029153595712 0.00029053438997 
0.00028954287732 0.00028856092437 0.00028758840676 0.00028662507944 0.00028567145403 0.00028472710364 0.00028379285806 0.00028286962732 0.00028195747919 
0.00028105721291 0.00028016887336 0.00027929296223 0.00027842893051 0.00027757630524 0.00027673498136 0.00027590308447 0.0002750802614 0.00032659054026 
0.00032533485573 0.00032408832751 0.00032285125003 0.00032162418999 0.00032040783119 0.00031920160227 0.00031800851066 0.00031682742106 0.00031565856668 
0.00031450200394 0.00031335720434 0.00031222366412 0.000311100098 0.00030998559241 0.00030887824173 0.00030777742014 0.00030668159973 0.00030558922096 
0.00030450001498 0.00030341396087 0.00030233048607 0.00030124978094 0.00030017286324 0.00029910069562 0.00029803417486 0.00029697476125 0.00029592329703 
0.00029488089387 0.00029384796256 0.00029282532007 0.00029181228784 0.00029080918009 0.00028981581668 0.00028883178108 0.00028785654742 0.00028689036953 
0.00028593310729 0.00028498478906 0.00028404631196 0.00028311814922 0.00028220124566 0.00028129557233 0.00028040152236 0.00027951972242 0.00027864998102 
0.00027779143901 0.00027694402285 0.00027610669384 0.00027527792302 0.00032679569406 0.00032553505333 0.00032428378648 0.00032304245631 0.00032181152773 
0.00032059100072 0.0003193825515 0.00031818662243 0.00031700313797 0.00031583220178 0.00031467355628 0.00031352665521 0.00031239091842 0.00031126504675 
0.00031014795963 0.00030903792762 0.00030793427468 0.00030683509673 0.00030573941479 0.00030464705665 0.00030355747058 0.00030247122436 0.00030138731713 
0.00030030750948 0.00029923281791 0.0002981641221 0.00029710223859 0.00029604908541 0.00029500510488 0.00029397154291 0.0002929475673 0.0002919333508 
0.00029092905511 0.00028993409695 0.00028894845371 0.00028797098008 0.00028700184784 0.00028604125894 0.00028508958875 0.00028414709031 0.00028321431072 
0.00028229219941 0.00028138120741 0.00028048184278 0.0002795945442 0.00027871916723 0.00027785478155 0.0002770017062 0.0002761586682 0.00027532452476 
0.00032684591493 0.00032558177336 0.00032432688615 0.00032308218644 0.00032184838865 0.00032062522263 0.00031941467787 0.0003182168096 0.00031703105886 
0.00031585840516 0.00031469813661 0.00031354961795 0.00031241225893 0.00031128469575 0.00031016538053 0.00030905305499 0.00030794663838 0.00030684475686 
0.00030574671939 0.00030465145501 0.00030355912785 0.00030246978488 0.00030138405373 0.00030030163523 0.0002992247067 0.00029815410331 0.00029709088684 
0.00029603645097 0.00029499142228 0.0002939566413 0.00029293162295 0.00029191663215 0.00029091115374 0.00028991499342 0.00028892742495 0.00028794799856 
0.00028697661577 0.00028601316329 0.00028505782343 0.00028411164538 0.00028317456291 0.00028224791491 0.0002813319531 0.00028042756543 0.00027953500975 
0.0002786540481 0.00027778448482 0.00027692572099 0.00027607738321 0.00027523800195 0.0003267661283 0.00032549914329 0.00032424213479 0.00032299537144 
0.00032175889303 0.00032053479461 0.00031932254726 0.00031812339437 0.00031693693634 0.00031576326203 0.00031460180599 0.0003134519825 0.00031231303404 
0.00031118365847 0.00031006235496 0.00030894834428 0.00030783960462 0.0003067355095 0.00030563510429 0.00030453742676 0.00030344292079 0.00030235110997 
0.00030126254438 0.00030017895084 0.00029910039246 0.00029802837674 0.0002969639563 0.00029590835539 0.00029486278598 0.00029382699393 0.00029280129228 
0.00029178544097 0.00029077907195 0.00028978170504 0.0002887925448 0.00028781128065 0.00028683761385 0.00028587113123 0.00028491270401 0.00028396322677 
0.00028302234247 0.00028209145166 0.0002811710167 0.00028026170879 0.0002793640777 0.00027847800095 0.00027760330043 0.00027673936312 0.00027588552512 
0.00027504099314 0.00032658714916 0.00032531872335 0.00032405989954 0.0003228119159 0.00032157465295 0.00032034937671 0.00031913647202 0.00031793630645 
0.00031674914937 0.00031557482861 0.00031441258674 0.00031326158733 0.00031212146189 0.00031099076874 0.00030986808322 0.00030875191777 0.00030764137123 
0.00030653545841 0.00030543244466 0.00030433277426 0.00030323592451 0.00030214249748 0.00030105245236 0.00029996664165 0.00029888747328 0.00029781438484 
0.00029674901836 0.00029569276153 0.00029464623089 0.00029360975532 0.00029258345746 0.00029156684373 0.00029055959797 0.00028956093411 0.00028857018739 
0.00028758715116 0.00028661127006 0.00028564235131 0.00028468111137 0.00028372818702 0.00028278376623 0.00028184913469 0.00028092445251 0.00028001082939 
0.00027910847676 0.00027821759646 0.00027733794042 0.00027646896969 0.0002756101172 0.00027476038774 0.00032634166719 0.00032507211778 0.00032381258525 
0.00032256391396 0.0003213261798 0.00032010065692 0.00031888764883 0.00031768714936 0.00031649926338 0.00031532410706 0.0003141610905 0.00031300934041 
0.00031186804279 0.0003107359545 0.00030961149533 0.00030849340024 0.00030738077188 0.00030627296391 0.00030516833584 0.00030406686814 0.00030296879805 
0.00030187378409 0.00030078257309 0.0002996958621 0.00029861502564 0.00029754147124 0.00029647546927 0.0002954186499 0.00029437131892 0.00029333406297 
0.00029230693822 0.00029128964134 0.00029028119577 0.00028928110174 0.00028828886193 0.00028730405884 0.00028632607491 0.00028535470946 0.00028439086277 
0.00028343468613 0.00028248698655 0.00028154864623 0.00028062028537 0.00027970247832 0.00027879585583 0.00027790040938 0.00027701620182 0.00027614239364 
0.00027527852241 0.00027442384152 0.00032606074069 0.00032479102687 0.00032353156872 0.0003222823007 0.00032104495679 0.0003198192368 0.00031860599833 
0.00031740553159 0.00031621743117 0.00031504181988 0.00031387809204 0.00031272528405 0.00031158289822 0.00031044885686 0.00030932252229 0.00030820272653 
0.0003070883696 0.00030597837561 0.00030487208562 0.00030376906654 0.00030266947683 0.00030157339233 0.00030048123547 0.00029939379315 0.00029831242372 
0.00029723786147 0.00029617213577 0.00029511473964 0.00029406683739 0.00029302881759 0.00029200019121 0.00029098169874 0.00028997197156 0.0002889703232 
0.00028797656523 0.00028698969678 0.00028600941532 0.00028503581183 0.00028406934987 0.00028311032696 0.0002821596045 0.00028121796878 0.00028028603736 
0.00027936467848 0.00027845388942 0.00027755427677 0.00027666536186 0.00027578697056 0.00027491844109 0.00027405875789 0.00032577412202 0.00032450468834 
0.00032324543095 0.00032199657361 0.00032075953027 0.00031953444329 0.00031832139485 0.00031712056077 0.00031593218921 0.00031475600849 0.00031359114954 
0.00031243721932 0.0003112933042 0.00031015756739 0.00030902934912 0.00030790763604 0.00030679114366 0.00030567920092 0.00030457135622 0.0003034666814 
0.0003023657444 0.00030126875823 0.00030017587941 0.00029908791284 0.00029800599735 0.00029693115877 0.00029586497049 0.00029480697578 0.00029375836032 
0.0002927191616 0.00029168984788 0.00029066984779 0.00028965845903 0.00028865504914 0.00028765896383 0.00028666983379 0.00028568744388 0.00028471157124 
0.0002837427101 0.0002827811391 0.00028182765075 0.00028088313559 0.00027994792268 0.00027902302144 0.00027810841753 0.00027720476141 0.00027631155838 
0.00027542843667 0.00027455518784 0.00027369063968 0.00032550850941 0.00032423964779 0.00032298051846 0.00032173272753 0.0003204961179 0.00031927129736 
0.00031805826971 0.00031685699098 0.00031566817625 0.00031449096833 0.00031332528109 0.00031217002081 0.00031102406042 0.00030988639591 0.00030875613945 
0.00030763227374 0.00030651383895 0.00030539980457 0.00030429005467 0.00030318385266 0.000302081822 0.0003009836899 0.00029989015293 0.00029880188784 
0.00029771963104 0.00029664446404 0.00029557703046 0.000294519084 0.00029346943278 0.00029242928778 0.00029139826226 0.00029037654171 0.00028936317617 
0.00028835777092 0.00028735950193 0.00028636833143 0.00028538358959 0.00028440561196 0.0002834338641 0.00028246982625 0.00028151369215 0.00028056627713 
0.00027962840029 0.0002787001042 0.00027778178453 0.00027687424926 0.00027597706897 0.00027508935285 0.00027421138308 0.00027334226257 0.00032528636028 
0.00032401804438 0.00032275936556 0.00032151191346 0.0003202753696 0.00031905063163 0.00031783751471 0.0003166361024 0.00031544643874 0.0003142682223 
0.00031310074888 0.00031194373608 0.00031079556697 0.00030965583555 0.00030852342385 0.00030739706371 0.00030627642646 0.00030516025528 0.00030404859832 
0.00030294110235 0.00030183742736 0.0003007385632 0.00029964424171 0.00029855550491 0.00029747287418 0.00029639708841 0.00029532894498 0.0002942694741 
0.00029321947566 0.00029217787826 0.00029114515487 0.00029012132848 0.00028910584806 0.00028809798356 0.00028709711602 0.0002861033595 0.00028511619333 
0.00028413582049 0.00028316217658 0.00028219591416 0.00028123732067 0.00028028744883 0.00027934632068 0.00027841487571 0.00027749323978 0.00027658168585 
0.00027568036561 0.0002747887973 0.00027390618758 0.00027303241631 0.0003251250101 0.000323856237 0.00032259823383 0.00032135112006 0.00032011474946 
0.00031888965231 0.00031767596924 0.00031647377625 0.00031528309879 0.00031410339433 0.00031293410945 0.00031177493906 0.0003106244735 0.00030948232562 
0.00030834714602 0.00030721825154 0.00030609508615 0.00030497665493 0.00030386314264 0.00030275382107 0.00030164891209 0.00030054900504 0.00029945425164 
0.00029836454824 0.00029728121414 0.00029620473521 0.00029513555392 0.00029407507902 0.00029302306022 0.00029198034365 0.00029094547081 0.00028991924212 
0.00028890111026 0.00028789088658 0.00028688742641 0.00028589111196 0.0002849013468 0.00028391831434 0.00028294237996 0.00028197372094 0.00028101274312 
0.00028006025697 0.00027911682051 0.00027818225648 0.00027725749978 0.00027634205259 0.00027543698491 0.00027454090567 0.00027365414483 0.0002727755751 
0.00032503832758 0.00032376939166 0.00032251117985 0.00032126346062 0.00032002651045 0.0003188007085 0.00031758606158 0.00031638264356 0.00031519041578 
0.00031400861875 0.00031283758204 0.00031167569361 0.00031052263204 0.00030937758983 0.00030823986229 0.00030710822677 0.00030598228481 0.00030486142694 
0.00030374589084 0.0003026347821 0.00030152856354 0.00030042726622 0.00029933124549 0.0002982408473 0.00029715638936 0.00029607889005 0.00029500866724 
0.0002939468077 0.00029289290632 0.00029184797321 0.00029081084935 0.00028978177467 0.00028876117938 0.00028774797515 0.00028674172277 0.00028574245459 
0.00028475003418 0.00028376465823 0.00028278619309 0.00028181499161 0.00028085138111 0.00027989647777 0.00027895001249 0.00027801285007 0.00027708490272 
0.00027616646686 0.00027525736666 0.00027435734305 0.00027346584769 0.00027258282506 0.00032503514144 0.00032376591534 0.00032250677935 0.00032125820418 
0.00032002003204 0.00031879292172 0.00031757696071 0.00031637176598 0.00031517719072 0.00031399343876 0.00031281945286 0.00031165491783 0.00031049881866 
0.00030935076492 0.00030820991509 0.00030707533555 0.00030594666207 0.0003048234862 0.00030370556328 0.0003025925583 0.00030148457824 0.00030038162918 
0.00029928413181 0.0002981924304 0.0002971067707 0.00029602763159 0.00029495616157 0.00029389231075 0.00029283620685 0.00029178817516 0.00029074926363 
0.00028971756192 0.00028869371986 0.00028767729456 0.00028666804755 0.0002856658412 0.0002846706232 0.00028368234549 0.00028270129846 0.00028172764325 
0.00028076156622 0.00027980391421 0.00027885490271 0.0002779148639 0.00027698372576 0.0002760618014 0.00027514896934 0.00027424511217 0.0002733500076 
0.00027246262204 0.00032512300622 0.00032385220095 0.00032259141034 0.00032134103417 0.00032010118527 0.00031887227202 0.00031765390423 0.00031644660099 
0.00031524968388 0.00031406324197 0.00031288596418 0.00031171826059 0.00031055901274 0.00030940760152 0.00030826344719 0.00030712561259 0.00030599419017 
0.00030486832243 0.00030374784474 0.00030263265136 0.00030152276543 0.00030041768401 0.00029931842796 0.00029822501943 0.00029713764918 0.00029605700701 
0.00029498336776 0.00029391724217 0.00029285847593 0.00029180781711 0.00029076511552 0.00028973095829 0.00028870391449 0.00028768424235 0.00028667178873 
0.00028566641862 0.00028466804157 0.00028367697669 0.00028269322871 0.00028171676206 0.00028074807382 0.00027978775646 0.00027883606792 0.00027789287817 
0.00027695891064 0.00027603351039 0.00027511709602 0.00027420932631 0.0002733100003 0.00027241841612 0.00032530509717 0.00032403188506 0.00032276868185 
0.00032151594252 0.00032027379109 0.00031904211216 0.00031782112206 0.0003166110832 0.0003154110389 0.00031422121407 0.00031304105763 0.00031186941912 
0.0003107066471 0.00030955169296 0.0003084039634 0.00030726282681 0.00030612825715 0.00030499967202 0.00030387639915 0.00030275852321 0.0003016462493 
0.0003005391016 0.00029943736774 0.00029834175951 0.00029725240546 0.00029616947556 0.00029509336177 0.00029402436697 0.00029296301733 0.00029190923131 
0.00029086327487 0.00028982493957 0.00028879488102 0.00028777174753 0.00028675599335 0.00028574710319 0.00028474570244 0.00028375135783 0.00028276454264 
0.00028178537512 0.00028081463105 0.00027985148904 0.00027889674757 0.00027795046249 0.00027701277027 0.00027608404871 0.00027516402497 0.00027425241306 
0.00027334904152 0.00027245386876 0.00032558292351 0.00032430661337 0.00032304080385 0.00032178480658 0.00032053961107 0.00031930502497 0.00031808100588 
0.00031686727369 0.00031566396139 0.00031447021189 0.00031328624665 0.00031211089814 0.0003109441991 0.00030978529283 0.00030863405623 0.00030748933721 
0.00030635116841 0.00030521915057 0.00030409283962 0.00030297213043 0.00030185688555 0.00030074709868 0.00029964299577 0.00029854463992 0.00029745257254 
0.00029636666857 0.00029528779342 0.00029421591644 0.00029315143366 0.00029209413543 0.00029104459265 0.00029000263451 0.00028896867641 0.00028794162578 
0.00028692237748 0.00028590992388 0.00028490483515 0.00028390754572 0.00028291770594 0.00028193565023 0.00028096142109 0.0002799953818 0.00027903750136 
0.00027808836794 0.00027714756313 0.00027621526117 0.00027529150331 0.00027437645542 0.00027346942182 0.00027257049374 0.00032595736116 0.00032467740974 
0.00032340809728 0.00032214883079 0.00032089965972 0.00031966133691 0.0003184335399 0.00031721616899 0.00031600829551 0.0003148107243 0.00031362248989 
0.00031244318804 0.00031127200995 0.00031010904306 0.00030895363636 0.0003078051615 0.00030666331698 0.00030552767153 0.00030439784474 0.0003032739761 
0.00030215553709 0.0003010426381 0.00029993531553 0.00029883390223 0.00029773844815 0.00029664953343 0.00029556735838 0.00029449210144 0.00029342400905 
0.00029236302396 0.00029130974529 0.00029026373135 0.00028922516746 0.00028819488478 0.000287171023 0.00028615481488 0.00028514630699 0.00028414538103 
0.0002831523417 0.00028216702303 0.00028118967769 0.00028022039619 0.00027925928072 0.00027830679451 0.00027736276556 0.00027642719212 0.00027550013354 
0.0002745815208 0.00027367100438 0.00027276839859 0.00032642881453 0.00032514472891 0.0003238710199 0.00032260752894 0.00032135474339 0.00032011177935 
0.00031887934715 0.00031765724484 0.00031644502765 0.00031524262545 0.00031404981025 0.00031286574478 0.00031169013079 0.00031052289233 0.00030936320165 
0.00030821038064 0.00030706441233 0.00030592483163 0.00030479124381 0.00030366364018 0.00030254187074 0.00030142574828 0.00030031487665 0.00029920991291 
0.00029811088213 0.00029701803185 0.00029593195136 0.00029485293817 0.0002937807469 0.00029271536672 0.00029165784742 0.00029060762847 0.00028956494057 
0.0002885294727 0.00028750233968 0.00028648217253 0.00028546964552 0.00028446516085 0.00028346881851 0.00028247987662 0.00028149903603 0.00028052656723 
0.00027956242051 0.00027860675775 0.00027765941257 0.00027672049881 0.00027579038518 0.00027486808557 0.00027395426455 0.00027304823706 0.00032699752633 
0.00032570858954 0.00032442985135 0.00032316201035 0.00032190415658 0.00032065626284 0.0003194191434 0.00031819161072 0.00031697446827 0.00031576746469 
0.00031456984926 0.00031338109716 0.00031220047629 0.0003110284968 0.00030986408408 0.00030870668922 0.00030755640923 0.00030641256512 0.00030527471884 
0.00030414275814 0.00030301680667 0.00030189617096 0.00030078136674 0.00029967248723 0.00029856943876 0.00029747238523 0.00029638192253 0.00029529856369 
0.00029422179611 0.00029315218066 0.00029208993624 0.00029103483733 0.00028998759511 0.00028894780494 0.000287916353 0.0002868920454 0.0002858755665 
0.00028486703259 0.00028386652889 0.00028287402491 0.00028188961288 0.00028091366986 0.00027994616815 0.00027898721574 0.00027803673693 0.00027709461635 
0.0002761611795 0.00027523581254 0.00027431858063 0.0002734096043 0.00032766259626 0.00032636855697 0.00032508488323 0.00032381157696 0.00032254826294 
0.00032129541849 0.00032005251228 0.0003188198255 0.00031759723789 0.00031638439153 0.00031518112641 0.00031398686205 0.00031280139065 0.00031162422232 
0.00031045458696 0.00030929221702 0.00030813705227 0.00030698871095 0.0003058462603 0.00030470978674 0.00030357894611 0.00030245408904 0.00030133491174 
0.00030022137742 0.00029911373502 0.00029801216849 0.0002969168966 0.00029582851929 0.00029474718484 0.00029367272333 0.00029260520921 0.00029154534528 
0.00029049322781 0.00028944883315 0.00028841206147 0.00028738405327 0.00028636331784 0.00028535063488 0.00028434604406 0.0002833497058 0.00028236166726 
0.00028138212494 0.00028041125711 0.00027944855113 0.00027849460415 0.00027754936829 0.00027661237429 0.00027568387464 0.00027476375261 0.00027385144916 
0.00032842385138 0.00032712414188 0.00032583413869 0.00032455481682 0.00032328583009 0.00032202713354 0.00032077887561 0.00031954007686 0.00031831141495 
0.00031709290907 0.00031588400922 0.00031468429835 0.00031349302267 0.00031231029907 0.00031113539507 0.00030996778422 0.00030880738538 0.00030765374291 
0.0003065064498 0.00030536516339 0.00030422921083 0.00030309941795 0.00030197537833 0.0003008568329 0.00029974406391 0.00029863753931 0.00029753707154 
0.00029644334889 0.00029535668329 0.00029427698535 0.00029320442735 0.00029213928691 0.00029108196149 0.0002900324111 0.0002889907174 0.00028795704993 
0.00028693250908 0.00028591535819 0.00028490653235 0.00028390636564 0.00028291454412 0.00028193125577 0.00028095654834 0.00027999048149 0.00027903323593 
0.00027808447142 0.00027714456714 0.00027621309225 0.00027528992779 0.00027437509507 0.00032928093595 0.0003279749292 0.00032667872523 0.00032539296639 
0.00032411790784 0.00032285297243 0.0003215982446 0.0003203534158 0.00031911836144 0.00031789351092 0.00031667832753 0.00031547261845 0.00031427554781 
0.00031308679762 0.00031190613286 0.00031073329398 0.00030956736324 0.00030840840302 0.00030725563465 0.00030610879055 0.00030496787622 0.00030383259015 
0.00030270292062 0.00030157904616 0.00030046103262 0.00029934895891 0.00029824304155 0.00029714349462 0.00029605088464 0.00029496540781 0.00029388715563 
0.00029281656894 0.00029175343326 0.00029069855588 0.0002896516489 0.00028861300965 0.00028758359229 0.00028656185746 0.00028554875283 0.00028454442335 
0.00028354857776 0.00028256146809 0.00028158312477 0.00028061349289 0.00027965288411 0.00027870114965 0.00027775805482 0.00027682371719 0.00027589784633 
0.0002749805601 0.00033023396419 0.00032892137687 0.00032761858723 0.00032632638044 0.00032504426689 0.00032377264296 0.00032251106786 0.00032125968152 
0.00032001791757 0.00031878646332 0.00031756473828 0.00031635246753 0.00031514898184 0.00031395412881 0.00031276757406 0.00031158879727 0.00031041728572 
0.00030925249323 0.00030809365381 0.00030694168772 0.00030579504896 0.00030465413348 0.00030351859325 0.00030238882526 0.00030126469459 0.00030014652637 
0.00029903435105 0.00029792879389 0.00029683018011 0.00029573834172 0.00029465402119 0.00029357723953 0.00029250836911 0.00029144772905 0.00029039547562 
0.00028935132126 0.00028831622917 0.00028729043329 0.000286272763 0.00028526401335 0.00028426411415 0.0002832730173 0.0002822911286 0.00028131799736 
0.00028035416589 0.00027939930311 0.00027845319925 0.00027751621658 0.00027658797829 0.00027566812914 0.00033128336986 0.00032996374181 0.00032865422823 
0.00032735468754 0.00032606565775 0.00032478678087 0.00032351802823 0.00032225927318 0.00032101067143 0.0003197718798 0.00031854165656 0.0003173225531 
0.00031611250818 0.00031491137024 0.00031371824907 0.00031253363601 0.00031135602523 0.00031018516982 0.00030902054634 0.00030786220044 0.00030670944366 
0.0003055624797 0.00030442071681 0.00030328448231 0.00030215381559 0.00030102936218 0.00029991087116 0.00029879866347 0.00029769344108 0.00029659482693 
0.00029550383019 0.00029442058412 0.00029334576175 0.00029227892264 0.00029122072981 0.00029017147967 0.00028913076992 0.00028809932255 0.00028707746999 
0.00028606417859 0.0002850601005 0.00028406519694 0.00028307943078 0.00028210291354 0.00028113597515 0.00028017969028 0.00027923110143 0.00027829172232 
0.00027736129276 0.00027643924278 0.00033242815936 0.00033110073075 0.00032978376063 0.00032847698188 0.00032718020065 0.00032589396846 0.00032461729826 
0.00032335098092 0.00032209468157 0.00032084873196 0.00031961249527 0.00031838640827 0.00031716947457 0.00031596138173 0.0003147618808 0.00031357054903 
0.00031238658608 0.00031120962188 0.0003100390369 0.00030887417155 0.00030771491272 0.00030656130901 0.00030541309147 0.00030427002643 0.0003031328235 
0.0003020015017 0.00030087571495 0.00029975614515 0.00029864376577 0.00029753833795 0.00029644028692 0.00029535035768 0.00029426880241 0.00029319554342 
0.00029213118274 0.00029107614982 0.00029003001246 0.00028899329835 0.00028796641253 0.00028694840009 0.00028594012609 0.0002849412508 0.00028395202088 
0.00028297218739 0.00028200210011 0.00028104167855 0.00028009045316 0.00027914878228 0.00027821596024 0.00027729227533 0.00033366988171 0.00033233467178 
0.00033100970061 0.0003296952463 0.00032839065351 0.0003270963242 0.00032581157332 0.00032453742518 0.00032327325093 0.00032201942293 0.00032077563666 
0.00031954155587 0.00031831758863 0.00031710244081 0.0003158960974 0.00031469824102 0.00031350783112 0.00031232437488 0.00031114734208 0.00030997616133 
0.000308810025 0.00030764955516 0.00030649415412 0.00030534430508 0.00030419970298 0.00030306061411 0.00030192734041 0.00030080030248 0.00029968019798 
0.00029856729118 0.00029746191615 0.00029636457519 0.00029527598883 0.00029419609474 0.00029312514379 0.00029206418868 0.00029101239373 0.00028997044034 
0.00028893790773 0.00028791585501 0.00028690324255 0.00028590026546 0.00028490700059 0.00028392392331 0.00028295106515 0.00028198804886 0.00028103470211 
0.00028009097702 0.00027915655715 0.00027823128221 0.00033500620466 0.00033366274904 0.00033232969323 0.00033100701423 0.00032969466058 0.00032839193109 
0.00032709862203 0.0003258156894 0.00032454306897 0.00032328083162 0.00032202902801 0.0003207874044 0.00031955583181 0.00031833346493 0.00031712032788 
0.00031591568639 0.00031471898239 0.00031352862976 0.00031234506095 0.0003111670787 0.00030999421346 0.0003088260953 0.0003076637649 0.00030650623165 
0.00030535385206 0.00030420655276 0.00030306550164 0.00030193030407 0.00030080211429 0.00029968084514 0.00029856763097 0.0002974629489 0.00029636684062 
0.00029527981912 0.00029420256387 0.00029313519477 0.00029207757314 0.00029102990969 0.0002899923808 0.00028896439868 0.00028794797432 0.00028694129291 
0.00028594462056 0.00028495829424 0.00028398258744 0.00028301702575 0.00028206165103 0.00028111615966 0.00028018045487 0.00027925401816 0.00033643445505 
0.00033508333829 0.00033374157611 0.00033241035967 0.00033108907388 0.00032977754005 0.00032847553615 0.00032718358563 0.00032590211042 0.00032463128906 
0.00032337122634 0.00032212174321 0.00032088219519 0.00031965259992 0.00031843246094 0.00031722109743 0.00031601730414 0.00031482058844 0.00031363008296 
0.00031244505107 0.00031126483297 0.00031008987981 0.00030891966547 0.00030775403858 0.00030659308002 0.00030543755402 0.00030428792888 0.000303144301 
0.00030200735044 0.00030087773842 0.00029975639601 0.00029864357403 0.00029753984184 0.00029644562057 0.00029536152013 0.0002942873575 0.0002932232601 
0.00029216978115 0.00029112703869 0.00029009455976 0.00028907364612 0.00028806276974 0.0002870625878 0.00028607313889 0.00028509463179 0.00028412681743 