# vtk DataFile Version 5.1
vtk output
ASCII
DATASET STRUCTURED_POINTS
DIMENSIONS 50 50 50
SPACING 0.002 0.002 0.002
ORIGIN 0.2174 -0.052672 0.02732
POINT_DATA 125000
FIELD FieldData 1
potential 1 125000 double
0.0011683951955 0.001158673618 0.0011490585658 0.0011395449449 0.0011301300521 0.0011208088433 0.0011116038671 0.0011025061393 0.0010935186673 
0.0010845346202 0.0010757836256 0.0010671549162 0.0010586500033 0.0010502697887 0.0010420145959 0.0010338815659 0.0010258655205 0.0010179637111 
0.0010101674755 0.0010024729502 0.00099488127467 0.0009873080973 0.00097990435213 0.00097259074877 0.00096536548314 0.00095822926762 0.00095118480786 
0.00094422611406 0.00093735723406 0.00093057900307 0.00092389112985 0.00091729303923 0.00091078455758 0.00090436384758 0.00089802942718 0.00089178867309 
0.00088562429331 0.00087953403995 0.00087352298887 0.00086758423691 0.00086172687745 0.00085594652996 0.00085024125164 0.00084460837953 0.00083905347495 
0.00083356846037 0.00082815230011 0.00082280054606 0.00081750841028 0.00081227362314 0.0011667683552 0.0011570835654 0.0011475102847 0.0011380313651 
0.001128651651 0.0011193847927 0.0011102258057 0.0011011769326 0.0010921251043 0.0010833064141 0.0010746067724 0.0010660297224 0.0010575746004 
0.0010492451844 0.0010410368367 0.0010329493583 0.0010249761548 0.0010171137877 0.0010093552313 0.0010016943268 0.00099413410281 0.00098659017175 
0.00097921277856 0.00097192364209 0.00096472098596 0.00095760928627 0.00095058140166 0.00094364165621 0.00093679093905 0.00093002975015 0.00092335842024 
0.0009167759462 0.00091028204583 0.00090387425678 0.00089756470991 0.00089132544097 0.00088517108585 0.00087909067993 0.00087308734105 0.00086715655433 
0.00086130693027 0.00085553132562 0.00084983316436 0.00084420916453 0.00083865901687 0.0008331803843 0.00082777051597 0.00082242473489 0.00081714075139 
0.00081191209264 0.0011646714559 0.0011550201258 0.0011454841957 0.0011360450688 0.001126721932 0.0011175024095 0.0011083938915 0.0010993975847 
0.0010903996411 0.0010816357779 0.0010729914466 0.0010644679067 0.001056068388 0.0010477906357 0.0010396331736 0.0010315926638 0.0010236656865 
0.0010158456762 0.0010081268038 0.0010005039196 0.00099290106805 0.00098546623684 0.00097811945101 0.00097085835517 0.0009636861595 0.00095659595014 
0.00094959235051 0.00094267573758 0.00093584690424 0.0009291077492 0.00092245735373 0.00091589401307 0.00090941887248 0.00090302980352 0.00089673525388 
0.00089051583078 0.00088437002625 0.00087830229364 0.00087230612357 0.00086638685185 0.00086054563767 0.00085478156099 0.00084909084398 0.00084347347789 
0.00083792984902 0.00083245733471 0.00082705379536 0.00082171357214 0.00081643456704 0.00081121203966 0.0011619828609 0.001152382789 0.0011428821341 
0.0011335014913 0.0011242289821 0.0011150612171 0.0011060072399 0.0010970668475 0.0010881278464 0.0010794224197 0.0010708376879 0.0010623736921 
0.0010540323955 0.0010458102229 0.0010377073504 0.0010297189379 0.0010218402694 0.0010140675988 0.0010063925395 0.00099881100616 0.00099124649722 
0.00098384810265 0.00097653544186 0.00096931026003 0.0009621659676 0.00095510554903 0.0009481307909 0.00094124260255 0.00093444160516 0.00092772766113 
0.00092110252667 0.00091456557945 0.00090811421879 0.00090175772639 0.00089547193048 0.000889269781 0.00088314162003 0.00087708616583 0.00087110431469 
0.00086519887612 0.00085936875507 0.00085361402479 0.00084793198837 0.00084232190782 0.00083678526554 0.00083131951453 0.00082592260908 0.00082058939426 
0.00081531706325 0.0008101007063 0.0011586302689 0.0011490711315 0.0011396339544 0.0011303060241 0.0011210887984 0.0011119824121 0.0011029860222 
0.0010939917641 0.0010852321571 0.0010765898509 0.0010680690935 0.0010596687153 0.001051389767 0.0010432291425 0.0010351849388 0.0010272529201 
0.0010194280195 0.0010117057698 0.0010040796672 0.00099646577849 0.00098902274803 0.00098166516348 0.00097439130351 0.0009672038511 0.00096009532375 
0.00095307024068 0.00094612975295 0.00093927365601 0.00093250513526 0.00092582394044 0.00091922936715 0.00091272080679 0.00090630853003 0.0008999671496 
0.00089370942173 0.00088752269362 0.0008814156489 0.00087538074309 0.00086941588176 0.00086352500518 0.00085770938435 0.00085196585239 0.00084629433681 
0.00084069508874 0.00083516697017 0.0008297091938 0.00082431909004 0.00081899435299 0.00081372871212 0.00080851979347 0.0011545427318 0.0011450516783 
0.0011356729491 0.0011264052117 0.0011172495037 0.0011082073508 0.0010992766737 0.0010903494331 0.0010816574758 0.00107308491 0.0010646327076 
0.001056301593 0.0010480902672 0.0010399959257 0.0010320143926 0.0010241437075 0.0010163780591 0.0010087111044 0.0010011381422 0.00099357539451 
0.00098618145089 0.00097886995249 0.00097164350577 0.0009644952997 0.00095742806594 0.00095044114534 0.00094354010577 0.00093672403852 0.00092999312255 
0.00092334872851 0.00091678964325 0.00091031584552 0.00090393603915 0.00089762697287 0.00089139381585 0.00088523695876 0.00087915321757 0.00087314111836 
0.00086719553226 0.00086132306762 0.00085552337744 0.00084979425851 0.00084413587151 0.000838548917 0.00083303184326 0.00082758446254 0.00082220390253 
0.00081688851513 0.00081163237048 0.00080643260259 0.0011497169749 0.0011402916981 0.0011309778446 0.0011217769466 0.0011126891431 0.0011037168013 
0.0010947406766 0.0010860040108 0.0010773862153 0.0010688882631 0.0010605107151 0.00105225397 0.0010441142835 0.0010360908165 0.001028179029 
0.0010203741092 0.0010126722254 0.0010050670529 0.00099747095768 0.00099004460319 0.00098270510746 0.00097544831082 0.00096826754419 0.00096116583773 
0.00095414502694 0.00094720474188 0.00094034801296 0.00093357455526 0.00092688678987 0.00092028411085 0.00091376363799 0.00090734084846 0.00090098644486 
0.00089471452547 0.00088851499652 0.00088238893174 0.00087633295865 0.00087034742029 0.00086442534807 0.00085857424593 0.000852793619 0.0008470814181 
0.0008414392812 0.00083586659945 0.00083036401023 0.00082492930665 0.00081956096208 0.00081425724234 0.00080901264241 0.00080382549117 0.0011441561221 
0.0011348012669 0.0011255604245 0.0011164336421 0.0011074214996 0.0010985254072 0.0010896258003 0.0010809684435 0.0010724308277 0.0010640128742 
0.0010557153124 0.0010475368186 0.0010394756294 0.0010315280663 0.0010236908029 0.0010159565435 0.0010083232895 0.0010007843842 0.00099325174873 
0.00098588578983 0.00097860843919 0.00097140269979 0.00096427645688 0.00095722840531 0.00095025922993 0.0009433695727 0.0009365618625 0.00092983670034 
0.0009231945537 0.00091663756907 0.00091017685507 0.00090378494772 0.00089747552641 0.00089124009932 0.00088507840393 0.00087898649815 0.00087296320338 
0.00086700682339 0.00086111191854 0.00085528609213 0.00084952761224 0.00084383649756 0.00083821337544 0.0008326579454 0.00082717146591 0.00082175290673 
0.00081639924231 0.00081110939831 0.00080588001893 0.00080070594591 0.0011379027269 0.0011286274481 0.0011194666579 0.0011104209146 0.001101490575 
0.0010925573705 0.0010838620695 0.0010752889648 0.0010668364558 0.0010585034843 0.0010502906331 0.0010421955831 0.0010342166102 0.0010263494178 
0.0010185901547 0.0010109318899 0.0010033720603 0.00099582396084 0.00098843728317 0.00098114180529 0.00097392250763 0.00096678027609 0.00095971285821 
0.0009527222013 0.00094580920293 0.000938974724 0.0009322172519 0.00092554483742 0.00091895524398 0.00091245033901 0.00090603791593 0.00089969316509 
0.00089342920643 0.00088723683303 0.00088111710318 0.00087506362133 0.00086907543878 0.00086315134712 0.00085728789619 0.00085149053095 0.00084575722379 
0.00084008973047 0.00083448815438 0.000828953627 0.00082348663622 0.00081808663571 0.00081275004894 0.00080747735226 0.00080226453115 0.00079710753568 
0.0011310340079 0.001121847256 0.0011127737385 0.0011038151479 0.0010949730968 0.0010861286844 0.001077523201 0.0010690395958 0.0010606759344 
0.0010524320309 0.0010443073684 0.0010362998174 0.0010284071969 0.0010206248631 0.0010129468946 0.0010053681577 0.00099788331549 0.00099040974766 
0.00098310229602 0.00097587140313 0.0009687195787 0.00096164205316 0.00095463899404 0.00094770728629 0.00094085410051 0.0009340781797 0.00092738088853 
0.00092076482953 0.00091423057687 0.00090779057776 0.0009014183701 0.00089512710713 0.00088890849755 0.00088276291311 0.00087668560002 0.00087067342923 
0.00086472456481 0.00085883662093 0.00085300572569 0.00084724045013 0.00084153523899 0.00083589467956 0.00083031774058 0.00082480718537 0.00081936277099 
0.00081398350887 0.00080866824184 0.00080341477877 0.00079822180238 0.00079308399477 0.0011236490492 0.0011145557869 0.0011055773003 0.0010967129789 
0.0010878437696 0.001079214791 0.0010707024723 0.0010623128244 0.0010540432523 0.0010458926954 0.0010378598303 0.0010299425424 0.0010221383577 
0.001014440902 0.0010068481513 0.00099935232581 0.00099186828741 0.00098455262141 0.00097732030209 0.00097016229113 0.00096308158179 0.00095607109657 
0.0009491337466 0.00094227004296 0.0009354807081 0.00092876705317 0.00092213052271 0.00091557319472 0.00090910940044 0.00090271320387 0.00089639576651 
0.00089015682752 0.00088398904761 0.00087789180735 0.00087186023627 0.00086589156591 0.00085998356129 0.00085412953402 0.00084833806607 0.00084260745385 
0.00083693418285 0.00083132328974 0.00082577461615 0.00082028999486 0.00081487029811 0.0008095150646 0.00080422299082 0.00079899201366 0.00079381989328 
0.00078870335013 0.0011158644226 0.0011068714475 0.0010979909485 0.0010892256872 0.001080456576 0.0010719253276 0.0010635124168 0.0010552183399 
0.0010470458722 0.0010389907916 0.0010310525697 0.0010232261085 0.0010155128659 0.0010079060426 0.0010003995801 0.0009929068904 0.00098558630273 
0.00097835592609 0.00097119285528 0.00096411045876 0.00095710279386 0.00095016646435 0.00094329949579 0.00093650259107 0.00092978044575 0.00092313156033 
0.00091655791993 0.00091006268869 0.00090365758334 0.00089731938536 0.00089106019709 0.00088487323842 0.00087875802252 0.00087270991548 0.00086672519175 
0.00086080175607 0.00085493606667 0.00084912300304 0.00084336991745 0.00083767465025 0.00083203563744 0.00082645774544 0.00082093938654 0.00081548411667 
0.00081009186188 0.00080476292679 0.00079949612544 0.00079428961604 0.00078914118024 0.00078404759923 0.0011078045864 0.0010989144003 0.0010901368515 
0.0010814740019 0.0010728068311 0.0010643775326 0.0010560663081 0.0010478724016 0.0010397962769 0.0010318382121 0.0010239956732 0.0010162653186 
0.001008643991 0.0010011268257 0.00099370747855 0.00098629981909 0.00097906478076 0.00097191038327 0.00096482897225 0.00095782337165 0.00095089156712 
0.00094402826983 0.00093723365182 0.0009305075312 0.00092385253647 0.00091727080856 0.00091076215292 0.00090434114297 0.00089798488309 0.00089170665038 
0.00088550210873 0.00087937068374 0.00087330711188 0.00086730865281 0.00086137217945 0.00085549473878 0.00084967290893 0.00084390120943 0.00083818859914 
0.00083253042589 0.00082692759662 0.00082138351786 0.00081589863721 0.000810474127 0.00080511210701 0.00079981147038 0.00079457246478 0.00078939211497 
0.00078426865704 0.00077919963288 0.0010995875929 0.001090804352 0.0010821336564 0.0010734546836 0.0010650136811 0.0010566855466 0.0010484759702 
0.001040385196 0.0010324094339 0.0010245495151 0.0010168033265 0.0010091669605 0.001001638342 0.0009942075175 0.00098679383 0.00097955883771 
0.000972404318 0.00096532680452 0.00095832865629 0.00095140109395 0.00094454492088 0.00093775676947 0.00093103518765 0.00092438071429 0.00091779526295 
0.0009112798848 0.00090484934897 0.00089848009889 0.00089218506998 0.00088596529278 0.00087981641037 0.00087373877235 0.00086772725498 0.00086177849196 
0.00085589038441 0.00085005831379 0.00084428024412 0.00083855151647 0.00083287967621 0.00082726056211 0.00082169551408 0.00081618773071 0.00081073713032 
0.00080534662831 0.00080001580105 0.00079474577823 0.00078953479186 0.00078438243713 0.00077928610599 0.00077424227739 0.0010913282406 0.0010826536234 
0.0010740884243 0.0010655168573 0.0010571812185 0.0010489604241 0.0010408543405 0.0010328637618 0.0010249877029 0.0010172255231 0.0010095721661 
0.0010020294295 0.00099459202316 0.00098725203355 0.00097993084862 0.00097277527228 0.00096570301043 0.00095870639451 0.00095178792343 0.00094493780385 
0.0009381576827 0.00093144469606 0.00092479674819 0.00091821366343 0.00091169751792 0.00090525040353 0.00089888471859 0.00089257836145 0.00088634482483 
0.00088018100585 0.00087408814286 0.00086806293664 0.00086210195622 0.0008562022089 0.00085036110208 0.00084457395618 0.000838840457 0.00083315464457 
0.00082752453981 0.00082194588535 0.00081641993718 0.00081095001797 0.00080553555175 0.00080017949436 0.0007948815525 0.00078964322584 0.00078446253544 
0.00077933826781 0.0007742694044 0.0007692521586 0.001083125707 0.0010745603147 0.0010659828485 0.0010576407233 0.0010494103687 0.0010412934672 
0.0010332892882 0.0010253966241 0.0010176192091 0.001009952624 0.0010023963103 0.00099494617565 0.00098759720976 0.00098026862924 0.00097310948486 
0.00096603743811 0.0009590472704 0.00095213032154 0.00094528977999 0.00093851648567 0.00093181240893 0.00092517308511 0.00091859747204 0.00091208601621 
0.00090563926247 0.00089927013469 0.00089295632045 0.00088671258668 0.00088053733474 0.00087443065634 0.0008683905651 0.00086241668829 0.00085650488968 
0.00085065290256 0.00084485657664 0.00083911511621 0.00083342513091 0.0008277829627 0.00082219383694 0.00081665605722 0.00081116968111 0.00080573784099 
0.0008003617894 0.00079504128798 0.00078977733774 0.00078457154836 0.00077942246235 0.00077432778174 0.00076928671551 0.0007642968886 0.0010750682985 
0.0010666109406 0.0010581404921 0.0010499034162 0.0010417744182 0.0010337595716 0.0010258559637 0.001018064866 0.0010103834904 0.0010028116154 
0.00099534636465 0.0009879862892 0.00098064759287 0.00097348211065 0.00096640715135 0.00095941608831 0.00095250627813 0.00094566725646 0.00093890382214 
0.00093220722781 0.00092557603725 0.00091900992737 0.00091250544962 0.00090606352877 0.00089969557371 0.000893379701 0.00088712804617 0.00088094374753 
0.00087482591466 0.00086877353241 0.00086278517185 0.0008568603359 0.00085099638873 0.00084518960722 0.00083943775471 0.00083373951708 0.00082808862001 
0.0008224922904 0.00081694530212 0.00081144927022 0.00080600309755 0.00080061094126 0.00079527264043 0.00078998884164 0.00078476011413 0.00077958736508 
0.00077446982433 0.00076940629876 0.00076439377246 0.00075943184102 0.001067218055 0.0010587424934 0.0010504995694 0.0010423660697 0.0010343406718 
0.0010264250206 0.0010186189704 0.0010109238461 0.0010033367237 0.00099585639509 0.00098848063513 0.00098121379975 0.0009739547984 0.00096687290364 
0.00095987858377 0.0009529673095 0.00094613508194 0.0009393723263 0.00093268407988 0.00092606075386 0.00091950205775 0.00091300669674 0.0009065725486 
0.00090020813499 0.0008938935533 0.00088764015064 0.00088144799406 0.00087532102122 0.00086925743618 0.0008632572407 0.00085731801262 0.000851440118 
0.00084562091698 0.00083985902101 0.00083415012769 0.00082849446783 0.00082288549925 0.00081733010601 0.00081182500797 0.0008063696852 0.00080096405893 
0.00079561128715 0.0007903119128 0.00078506528721 0.00077987275458 0.00077473363779 0.00076964918589 0.00076461548714 0.00075963327193 0.00075469922042 
0.0010596294407 0.0010512566524 0.0010431148322 0.0010350796766 0.0010271519157 0.0010193324916 0.0010116208738 0.0010040184923 0.00099652188969 
0.00098912948561 0.00098184809838 0.0009745754519 0.00096748248967 0.00096048077561 0.00095356612588 0.00094673187504 0.00093997442306 0.00093328611267 
0.00092667089034 0.00092011841455 0.00091363037478 0.00090720245518 0.00090083366097 0.00089453414558 0.00088828087493 0.00088208694365 0.0008759521131 
0.00086987975084 0.00086386706175 0.00085791540421 0.00085202324081 0.00084618933813 0.00084041424391 0.00083469436017 0.00082902712741 0.00082341192615 
0.00081784377056 0.00081232982686 0.00080686524583 0.00080145026464 0.00079608416942 0.00079077139511 0.00078551025667 0.0007803016603 0.00077514531625 
0.0007700416221 0.00076498937218 0.00075998773228 0.00075503532928 0.00075013035878 0.0010522104047 0.0010440607963 0.0010360152087 0.0010280753085 
0.0010202410698 0.0010125138412 0.0010048934444 0.00099738051137 0.00098996920199 0.00098266961359 0.000975463572 0.00096827310624 0.00096125916158 
0.00095433530978 0.00094749632769 0.00094073617432 0.00093404910703 0.00092743606887 0.00092089034645 0.00091440797871 0.00090798511784 0.00090162166117 
0.00089532652075 0.00088907651355 0.00088288203113 0.00087674269603 0.00087066286957 0.00086464076409 0.00085867624403 0.00085276981426 0.00084692304093 
0.00084113224151 0.00083539755318 0.00082971733473 0.0008240899003 0.0008185144442 0.00081298611905 0.00080751138198 0.00080208685621 0.00079671233402 
0.00079138652825 0.00078611292281 0.00078089053176 0.00077571972209 0.00077059996791 0.00076553104112 0.00076051245533 0.00075554338866 0.0007506242434 
0.0007457488657 0.0010452329037 0.0010371761529 0.0010292222279 0.0010213729598 0.0010136282424 0.0010059891137 0.00099845386934 0.00099102637024 
0.00098370549278 0.00097648084794 0.00096926998556 0.00096224082658 0.00095530339209 0.00094845368314 0.00094168747012 0.00093499885203 0.00092838228293 
0.00092183771844 0.00091535875689 0.00090894171826 0.0009025823675 0.00089629070383 0.00089004334688 0.00088385020163 0.00087770964147 0.00087162425603 
0.00086559364453 0.00085961880917 0.0008536987166 0.00084783573393 0.00084202898447 0.00083627863142 0.0008305831437 0.00082494120054 0.00081935181598 
0.0008138144606 0.00080832397016 0.0008028884045 0.00079750321449 0.00079216821912 0.00078688172052 0.00078164734602 0.00077646401086 0.00077133068166 
0.00076625008655 0.00076121663945 0.00075623240573 0.00075129610806 0.00074640656101 0.00074156167594 0.0010385852081 0.0010306150972 0.0010227487608 
0.0010149854 0.0010073257199 0.00099976925848 0.00099231524921 0.00098497561792 0.00097772606062 0.00097049446952 0.00096344540102 0.00095648847257 
0.000949623697 0.00094284516248 0.00093614838398 0.00092952816188 0.00092297829418 0.0009164998512 0.00091008411976 0.00090372819511 0.00089743955248 
0.00089119438522 0.00088500157379 0.0008788613064 0.00087277174599 0.00086673478511 0.00086075004031 0.0008548182315 0.00084894090817 0.00084311778692 
0.00083734931579 0.000831635466 0.00082597661516 0.00082037091802 0.00081481847383 0.00080931323341 0.00080386460671 0.00079846666168 0.00079311973062 
0.00078782337236 0.00078257980451 0.00077738463742 0.0007722397083 0.00076714394913 0.00076209730868 0.00075709987544 0.00075215024024 0.00074724705557 
0.00074238963212 0.00073757737338 0.0010322675795 0.0010243805526 0.0010165975609 0.0010089152882 0.0010013357287 0.00099385871912 0.00098649318363 
0.00097921909723 0.00097204527179 0.00096488582103 0.00095790810038 0.00095102180876 0.00094422551285 0.00093751404888 0.00093088408151 0.00092432862347 
0.00091784153761 0.00091142408036 0.00090506802821 0.00089876979552 0.000892536214 0.00088634450008 0.00088020323123 0.00087411024686 0.00086806831101 
0.00086207487669 0.00085613278495 0.00085024181279 0.00084440337269 0.00083861691161 0.00083288421954 0.00082720543946 0.00082158044818 0.0008160086084 
0.00081049254084 0.00080502254435 0.0007996092918 0.00079424873063 0.00078893978101 0.00078368224002 0.00077847466039 0.00077331852836 0.00076821167671 
0.00076315475338 0.00075814601824 0.00075318440447 0.00074826968662 0.00074340158908 0.00073857772723 0.00073379808612 0.0010262815453 0.0010184736919 
0.0010107689299 0.0010031638245 0.00099565921234 0.00098826365882 0.00098096396402 0.00097376233205 0.0009665725479 0.00095956795292 0.00095265716684 
0.00094583769703 0.00093910552437 0.00093245751798 0.00092588937251 0.00091939515053 0.00091296747698 0.00090660718714 0.00090030638974 0.00089407338249 
0.00088787983752 0.00088173734397 0.00087564109199 0.00086959422033 0.00086359399636 0.00085764196288 0.00085173847851 0.00084588478189 0.00084008308686 
0.00083433077558 0.00082863188836 0.00082298529819 0.00081739207995 0.00081185374231 0.00080636774392 0.00080093154961 0.00079555342187 0.00079022848925 
0.0007849571062 0.0007797375576 0.00077456822444 0.00076945036418 0.00076438184119 0.00075936213509 0.00075439119578 0.0007494670946 0.00074458895219 
0.000739756051 0.00073496686107 0.00073022073362 0.0010206277231 0.0010128945622 0.0010052626735 0.00099772983328 0.00099030514456 0.00098297113306 
0.00097573870794 0.00096851845265 0.00096147979684 0.00095453758338 0.00094768987446 0.00094093183698 0.00093426000671 0.00092767195996 0.00092116185383 
0.00091472069011 0.00090835074299 0.00090204364688 0.0008958054866 0.00088961036006 0.00088346431178 0.00087736926197 0.00087131524497 0.00086530920291 
0.00085934777196 0.00085343189673 0.00084756326621 0.00084174350532 0.00083597257798 0.00083025071248 0.00082458239105 0.00081896644895 0.00081340396871 
0.00080789529771 0.00080244188826 0.00079703861081 0.00079169400179 0.00078640481934 0.00078116985475 0.00077598675896 0.00077085529577 0.00076577635709 
0.00076074745893 0.00075576758655 0.00075083481323 0.00074594841673 0.00074110815613 0.00073631053612 0.00073155736775 0.00072684585014 0.0010153008615 
0.0010076377119 0.0010000742122 0.00099261850856 0.00098525159506 0.00097798252863 0.00097081474577 0.00096365534838 0.00095667777299 0.00094979596171 
0.00094300826287 0.00093630790953 0.00092969182961 0.00092315868565 0.00091670190895 0.00091031269411 0.00090399364213 0.00089774656576 0.00089154379351 
0.00088539303572 0.00087928998795 0.00087323087232 0.00086721826072 0.00086124926701 0.00085532277596 0.00084944000892 0.00084360279696 0.00083781358378 
0.00083207143255 0.00082637946351 0.00082073911886 0.00081515105785 0.00080961749651 0.00080413824536 0.00079871543099 0.00079334420894 0.00078803300251 
0.00078277791529 0.00077757794087 0.00077243212107 0.00076733815487 0.00076229766143 0.00075730764302 0.00075236634665 0.0007474729748 0.00074262496105 
0.00073782241908 0.00073306193434 0.00072834472093 0.0007236698483 0.0010102977055 0.0010027006622 0.00099521054822 0.00098780962839 0.00098050437051 
0.00097329681796 0.00096610297084 0.00095908720107 0.00095216589634 0.00094533868963 0.00093860301221 0.00093195457681 0.00092539103152 0.00091890771439 
0.0009124988795 0.00090615697586 0.00089988351772 0.00089368131502 0.00088752095256 0.00088141104536 0.00087534294316 0.00086932359372 0.00086334626712 
0.00085740982713 0.00085151483017 0.00084566224247 0.00083985365278 0.00083409109745 0.00082837692262 0.00082271166955 0.00081709705042 0.00081153566983 
0.00080602940125 0.00080057905812 0.00079518095496 0.00078984496539 0.00078456612812 0.00077934470799 0.00077417961549 0.00076907018982 0.00076401404273 
0.00075901174201 0.00075406094536 0.00074915824532 0.00074430316041 0.0007394944634 0.00073472905623 0.00073000726605 0.00072532813755 0.00072068948217 
0.001005612002 0.0009980868169 0.00099064664912 0.00098330431227 0.00097605739489 0.00096882072216 0.00096176826508 0.00095480546051 0.00094793558264 
0.00094115906562 0.00093447219589 0.00092787230429 0.00092135467742 0.00091491641827 0.0009085518051 0.00090225296237 0.0008960317427 0.00088985728026 
0.0008837358693 0.0008776626795 0.00087162833656 0.00086564174158 0.00085969588246 0.00085378891825 0.00084792209438 0.00084209684199 0.00083631371159 
0.00083057645519 0.00082488747483 0.00081924639271 0.00081365700878 0.00080812109633 0.00080264060366 0.00079721714053 0.00079184768417 0.00078654047411 
0.00078129416694 0.00077610554395 0.00077097475939 0.00076590186136 0.00076088311023 0.00075591863125 0.0007510057147 0.00074614212357 0.00074132638933 
0.00073655568864 0.00073183024585 0.00072714732057 0.00072250630452 0.00071790642718 0.0010012503295 0.00099377469265 0.00098639137939 0.00097910364261 
0.00097191127459 0.00096473001375 0.00095772448682 0.00095081092458 0.00094398828347 0.00093725678116 0.00093061388937 0.00092405731468 0.00091758180001 
0.00091118332338 0.00090485772015 0.00089860887745 0.00089241305232 0.00088627433716 0.00088018616989 0.0008741415054 0.00086814199232 0.0008621844348 
0.00085626589347 0.00085038601739 0.00084454456484 0.00083874395964 0.00083298522365 0.00082727097799 0.00082160398495 0.00081598653759 0.00081042069261 
0.00080490928927 0.0007994530631 0.00079405599866 0.00078871391012 0.00078343605028 0.00077822020166 0.00077306398945 0.00076796760567 0.00076292998355 
0.00075794750619 0.00075302075523 0.00074814584518 0.00074332108853 0.00073854434089 0.0007338136699 0.00072912733493 0.00072448380254 0.00071988203829 
0.00071532163127 0.00099719357348 0.00098977279446 0.00098244266651 0.00097520721544 0.00096797814012 0.00096093051616 0.0009539709211 0.00094710194628 
0.00094032185842 0.00093363151715 0.00092702828587 0.0009205092936 0.00091407019273 0.00090770773595 0.00090142561777 0.00089520187171 0.00088903893387 
0.00088293081386 0.00087686777982 0.00087085619425 0.00086488406397 0.00085895275297 0.00085305879647 0.00084720261815 0.00084138437708 0.00083560576355 
0.00082986918914 0.00082417659362 0.0008185315137 0.00081293554788 0.00080739229409 0.00080190335716 0.00079647199949 0.00079110015117 0.00078578561816 
0.00078053538163 0.00077534910703 0.00077022535121 0.00076516218087 0.00076015880946 0.00075521224077 0.00075032203475 0.00074548558555 0.00074069896224 
0.00073596149296 0.00073127026713 0.00072662253532 0.00072201898528 0.00071745753321 0.00071293639005 0.00099345001573 0.00098608017733 0.00097880084397 
0.00097152648334 0.00096442980272 0.00095742602037 0.00095050823538 0.00094367853061 0.00093693686498 0.00093028276874 0.00092371315024 0.00091722765976 
0.00091082128813 0.00090450165044 0.00089823776454 0.0008920436109 0.00088590864426 0.00087982356533 0.00087379122805 0.00086780435628 0.00086185603188 
0.00085594834661 0.00085007670884 0.0008442416279 0.00083844426189 0.00083268696449 0.00082697097518 0.00082129858776 0.00081567412941 0.00081009841414 
0.00080457682334 0.00079911051804 0.00079370349847 0.0007883561322 0.00078306741006 0.0007778465546 0.00077268846276 0.00076759487972 0.00076256412963 
0.00075759442835 0.00075268320396 0.0007478293768 0.00074302848356 0.00073828015587 0.00073358159122 0.0007289305768 0.00072432394158 0.00071976088057 
0.0007152411842 0.00071076003509 0.00099001888766 0.00098269594876 0.00097546198061 0.00096823292671 0.00096117791056 0.0009542151614 0.00094733397267 
0.00094054055098 0.00093383238811 0.00092721063662 0.00092067282918 0.00091421649378 0.00090784935557 0.00090154471807 0.00089530756355 0.00088913816764 
0.00088302752809 0.00087696629078 0.0008709580182 0.00086499222603 0.00085906513343 0.00085317768689 0.00084732648249 0.00084151113089 0.00083573404554 
0.00082999638655 0.00082429880431 0.00081864494119 0.00081304035823 0.00080748559914 0.00080198446845 0.00079654057148 0.00079115637386 0.00078582946798 
0.00078057024067 0.00077537683503 0.00077024742052 0.0007651836421 0.00076018334239 0.00075524494715 0.00075036866746 0.0007455497281 0.00074078650236 
0.00073607556132 0.00073141492197 0.00072680368526 0.00072223690132 0.00071771368871 0.00071323187594 0.00070879215166 0.00098689725798 0.0009796185285 
0.00097234139786 0.0009652398107 0.00095822340982 0.00095129688643 0.00094444980817 0.00093768860891 0.00093101083476 0.00092441735884 0.00091790582839 
0.00091147438866 0.00090513175717 0.00089885008744 0.00089263525871 0.00088648789115 0.00088039393966 0.0008743578486 0.00086836936229 0.00086242393093 
0.00085651535879 0.00085064642535 0.00084481329731 0.00083901684721 0.00083325740683 0.00082753681525 0.00082185769619 0.00081622301037 0.00081063698473 
0.00080510223249 0.00079962168981 0.00079419918084 0.00078883783008 0.00078353520375 0.00077829988848 0.00077313330989 0.00076803208519 0.00076299791612 
0.00075802816571 0.00075312178171 0.0007482779526 0.00074349278913 0.00073876409179 0.00073409076528 0.00072946779389 0.00072489354508 0.00072036544996 
0.00071588186215 0.00071144100039 0.00070704180835 0.0009840809662 0.00097675730893 0.0009696063994 0.00096254218803 0.00095556261386 0.00094866911007 
0.00094185263354 0.00093511952526 0.00092846813004 0.00092189883813 0.0009154106332 0.00090901239802 0.00090267918043 0.00089641481762 0.00089022249377 
0.00088408893699 0.0008780194651 0.00087200054481 0.00086603024677 0.00086010222903 0.00085421130924 0.00084835802921 0.00084254279419 0.00083676294773 
0.000831020538 0.00082531634313 0.00081965530348 0.00081403839208 0.00080847097697 0.00080295369298 0.0007974933174 0.00079209280703 0.00078675377777 
0.00078147429393 0.00077626582674 0.00077112487875 0.00076605104468 0.00076104429541 0.00075610409291 0.0007512263031 0.00074641442667 0.00074166388046 
0.00073696884852 0.00073232875911 0.00072774190335 0.00072320442574 0.00071871480764 0.00071427060179 0.00070987009009 0.00070551206957 0.00098156115926 
0.00097427888644 0.0009671637968 0.0009601345407 0.00095319046013 0.00094632376142 0.0009395358488 0.00093282758053 0.00092619951077 0.00091965205342 
0.00091319493625 0.00090680473677 0.00090048940121 0.00089424307691 0.00088806268743 0.00088195144978 0.00087589723888 0.00086989543669 0.00086394080392 
0.00085802835091 0.00085215315834 0.00084631694385 0.00084051703891 0.00083475266978 0.00082902445701 0.00082333698955 0.0008176926085 0.00081209354741 
0.00080654341547 0.00080104615955 0.00079560641896 0.0007902264582 0.00078490902578 0.00077965371682 0.00077446969893 0.00076935298876 0.00076430492392 
0.00075932480015 0.00075441411648 0.00074956565744 0.00074478344916 0.00074006190598 0.00073539919229 0.00073079263856 0.00072624022302 0.00072173879459 
0.00071728666074 0.00071288142056 0.00070852017964 0.00070420176386 0.00097923815982 0.00097207898949 0.00096499808234 0.00095800103179 0.00095108712089 
0.00094424758719 0.00093748626416 0.00093080083751 0.00092419382434 0.00091767661224 0.00091122647334 0.00090485321069 0.00089855429112 0.00089232401586 