# vtk DataFile Version 5.1
vtk output
ASCII
DATASET STRUCTURED_POINTS
DIMENSIONS 50 50 50
SPACING 0.002 0.002 0.002
ORIGIN 0.2174 -0.052672 0.02732
POINT_DATA 125000
FIELD FieldData 1
potential 1 125000 double
0.0003686209074 0.00036704484735 0.00036548004485 0.00036392598232 0.0003623832949 0.00036085187507 0.0003593343025 0.00035783089432 0.00035634260761 
0.00035486934273 0.00035341396207 0.0003519756038 0.00035055387774 0.00034914810497 0.00034775729299 0.00034637992688 0.0003450136144 0.00034365714654 
0.00034230801294 0.00034096537893 0.00033962813809 0.00033829502891 0.00033696674401 0.0003356431065 0.0003343245656 0.00033301219013 0.00033170715977 
0.00033041017409 0.00032912270748 0.00032784582372 0.00032658041458 0.00032532713916 0.00032408675129 0.00032285957008 0.00032164574915 0.00032044534543 
0.00031925852606 0.00031808498898 0.00031692557956 0.00031578005442 0.00031464924977 0.00031353355871 0.00031243289172 0.00031134689358 0.00031027729362 
0.00030922191614 0.00030818048802 0.00030715174214 0.00030613432427 0.00030512752904 0.00036857355575 0.00036699816897 0.00036543477567 0.00036388158705 
0.00036233959579 0.00036081055698 0.00035929492318 0.00035779401901 0.00035630707837 0.00035483781935 0.00035338530618 0.00035194994614 0.00035053097771 
0.00034912837405 0.00034774015125 0.00034636546694 0.00034500170819 0.0003436474709 0.00034230075963 0.00034096017547 0.00033962507346 0.00033829416553 
0.00033696795181 0.00033564649159 0.00033433022669 0.00033302046196 0.000331717726 0.00033042346756 0.00032913892356 0.00032786499929 0.00032660273038 
0.00032535267031 0.0003241154407 0.00032289121305 0.00032168095992 0.00032048347649 0.00031929928057 0.00031812843749 0.00031697129758 0.0003158281402 
0.00031469983165 0.00031358604273 0.00031248787362 0.00031140487666 0.00031033728681 0.00030928450058 0.00030824569956 0.00030721956893 0.00030620547356 
0.00030520142602 0.00036839530009 0.00036682040054 0.00036525752689 0.00036370564391 0.00036216643883 0.0003606395433 0.00035912673672 0.00035762903261 
0.00035614540604 0.00035467966902 0.00035323077647 0.00035179864047 0.00035038346603 0.00034898393097 0.00034759892997 0.0003462267432 0.00034486599528 
0.00034351422622 0.00034216997868 0.00034083198705 0.00033949890669 0.00033817080626 0.00033684723668 0.00033552844547 0.0003342152188 0.00033290820535 
0.00033160874062 0.00033031787216 0.00032903685237 0.0003277668853 0.00032650859517 0.00032526240038 0.00032402906951 0.00032280883662 0.00032160194828 
0.00032040812919 0.00031922698082 0.00031805927675 0.0003169047222 0.00031576385635 0.00031463773037 0.00031352701789 0.00031243106211 0.00031135010476 
0.00031028457243 0.0003092337769 0.00030819725669 0.00030717311845 0.00030616093532 0.0003051591575 0.00036805400914 0.00036648116878 0.00036491931079 
0.00036337036358 0.00036183392111 0.00036030985419 0.00035880056645 0.00035730643292 0.00035582703885 0.0003543654143 0.0003529209545 0.00035149317063 
0.00035008212691 0.00034868625806 0.00034730492317 0.00034593623446 0.00034457831312 0.00034322987982 0.00034188854021 0.00034055341205 0.00033922305713 
0.00033789784477 0.00033657728139 0.0003352617687 0.00033395189928 0.00033264853656 0.00033135298469 0.00033006645322 0.00032879002445 0.0003275244138 
0.00032627076592 0.00032502976793 0.00032380122465 0.00032258565953 0.00032138273695 0.00032019257704 0.00031901530925 0.00031785028431 0.00031669895949 
0.00031556108619 0.00031443754268 0.00031332893795 0.0003122350025 0.00031115567198 0.00031009177734 0.00030904265671 0.00030800782207 0.00030698560317 
0.00030597530868 0.00030497531304 0.00036752595432 0.00036595517858 0.00036439700949 0.00036285094789 0.00036131784517 0.00035979837049 0.00035829312323 
0.00035680256718 0.00035532935525 0.0003538726246 0.00035243317518 0.00035101038702 0.00034960413717 0.00034821298863 0.00034683598038 0.00034547129172 
0.0003441171497 0.00034277202252 0.00034143434949 0.00034010220359 0.00033877561625 0.0003374538175 0.0003361367329 0.00033482506434 0.00033351912685 
0.00033222023025 0.0003309294455 0.00032964765369 0.00032837645614 0.00032711649197 0.00032586837482 0.00032463258216 0.00032340966245 0.00032219909649 
0.00032100103279 0.00031981463273 0.00031864164626 0.00031748076244 0.00031633284556 0.0003151977761 0.00031407713735 0.00031297061224 0.00031187859453 
0.00031080142173 0.00030973902508 0.0003086913424 0.0003076576223 0.00030663718293 0.00030562811669 0.00030462961936 0.00036679486253 0.00036522830437 
0.00036367390901 0.00036213195315 0.00036060324175 0.00035908880031 0.00035758879271 0.0003561037378 0.00035463615346 0.00035318552224 0.00035175185953 
0.00035033507047 0.00034893445697 0.00034754877708 0.00034617650054 0.0003448165743 0.00034346705382 0.00034212598526 0.00034079229745 0.00033946431707 
0.00033814188485 0.00033682411469 0.00033551126363 0.00033420390559 0.00033290269518 0.00033160831829 0.00033032294325 0.00032904719982 0.00032778194033 
0.00032652817349 0.00032528626559 0.00032405678618 0.00032283995301 0.00032163482042 0.00032044204475 0.00031926144463 0.00031809280948 0.00031693622373 
0.0003157916782 0.00031465988872 0.00031354192056 0.00031243773765 0.00031134781539 0.00031027252248 0.00030921176472 0.00030816562129 0.00030713314699 
0.00030611414926 0.00030510657132 0.00030410953042 0.00036585516564 0.00036429354648 0.00036274387262 0.00036120706335 0.00035968377288 0.0003581751622 
0.00035668032422 0.00035520297745 0.00035374213246 0.00035229837346 0.00035087157875 0.00034946159365 0.00034806720056 0.00034668766835 0.00034532147044 
0.00034396690697 0.00034262259619 0.00034128664059 0.00033995711113 0.00033863392648 0.00033731646331 0.00033600335672 0.00033469523646 0.00033339276169 
0.00033209689542 0.00033080842658 0.00032952903577 0.00032825939136 0.00032700082158 0.00032575390979 0.00032451853088 0.00032329639861 0.00032208581404 
0.00032088754511 0.00031970096642 0.00031852596312 0.00031736224017 0.00031621034577 0.00031506978623 0.0003139414973 0.00031282645424 0.00031172466908 
0.00031063704108 0.00030956360923 0.00030850485723 0.00030746023989 0.0003064292423 0.00030541171437 0.000304405611 0.00030341049063 0.00036471012869 
0.00036315394851 0.00036161036338 0.00036007991087 0.00035856338497 0.00035706166165 0.00035557366417 0.00035410398651 0.00035265099729 0.00035121495355 
0.00034979586452 0.00034839322521 0.00034700634936 0.00034563378775 0.00034427438683 0.00034292592128 0.0003415875121 0.00034025728667 0.00033893313391 
0.00033761511752 0.00033630286868 0.00033499482249 0.00033369219584 0.00033239550289 0.00033110566492 0.00032982357852 0.00032855075298 0.00032728803808 
0.00032603639864 0.00032479668732 0.0003235698031 0.00032235449078 0.00032115136824 0.00031996004888 0.00031878017609 0.00031761108957 0.00031645305722 
0.00031530597201 0.00031416977548 0.00031304548544 0.00031193360379 0.00031083493007 0.00030974980061 0.00030867843704 0.000307621534 0.00030657886764 
0.00030554951862 0.00030453335162 0.00030352930177 0.00030253562642 0.00036337189262 0.0003618228475 0.00036028654285 0.00035876366803 0.00035725490456 
0.00035575979224 0.00035428160457 0.0003528202504 0.00035137580329 0.00034994838015 0.00034853779311 0.0003471433822 0.00034576448448 0.0003443995554 
0.00034304738253 0.00034170590551 0.00034037418943 0.00033904977738 0.00033773174038 0.00033642002913 0.00033511332533 0.00033381184259 0.00033251520768 
0.00033122479192 0.00032994157363 0.00032866647679 0.00032739999962 0.00032614478444 0.00032490093237 0.00032366963608 0.00032245051953 0.00032124304446 
0.00032004769076 0.00031886368271 0.00031769115305 0.0003165285854 0.0003153762329 0.00031423429676 0.00031310314393 0.00031198313215 0.00031087475703 
0.00030977911049 0.00030869660486 0.00030762782475 0.00030657319601 0.00030553260085 0.00030450499665 0.00030349072409 0.00030248845021 0.00030149684219 
0.00036186248094 0.00036032236361 0.00035879461452 0.00035728038762 0.00035578057461 0.00035429444872 0.0003528256265 0.00035137358653 0.00034993813644 
0.00034851984039 0.00034711825999 0.00034573270003 0.00034436243415 0.00034300594892 0.00034166145338 0.00034032743781 0.00033900242232 0.00033768484501 
0.00033637425385 0.00033506882785 0.00033376870232 0.00033247363293 0.00033118410967 0.00032989998351 0.00032862379973 0.0003273560315 0.00032609779581 
0.00032485053024 0.00032361486681 0.00032239193135 0.00032118067013 0.00031998159949 0.00031879405216 0.00031761783911 0.00031645209941 0.00031529636179 
0.00031415049461 0.00031301425755 0.00031188789069 0.00031077251828 0.00030966809958 0.00030857603335 0.00030749656609 0.0003064307589 0.00030537873955 
0.00030434032664 0.00030331525063 0.00030230288803 0.0003013028106 0.00030031347376 0.00036020964587 0.00035867923426 0.00035716179995 0.00035565766571 
0.00035416645913 0.00035269188377 0.00035123290684 0.00034979095288 0.00034836572012 0.00034695738806 0.00034556536716 0.00034418901349 0.0003428275519 
0.00034147923548 0.00034014301004 0.00033881707392 0.00033749938716 0.00033618949053 0.00033488602582 0.00033358766091 0.00033229478699 0.00033100643815 
0.00032972377359 0.00032844781251 0.00032717933432 0.0003259194937 0.00032466937194 0.00032343023548 0.0003222035913 0.00032098862966 0.00031978588638 
0.00031859511837 0.00031741578454 0.00031624737511 0.00031508898997 0.00031394021636 0.00031280074827 0.00031167003661 0.00031054909636 0.00030943890042 
0.00030833895916 0.00030725082274 0.0003061749917 0.0003051121937 0.00030406299432 0.00030302728216 0.00030200479107 0.00030099491306 0.00029999690476 
0.00029900991714 0.00035844670144 0.00035692756016 0.00035542074365 0.00035392768776 0.00035244788843 0.00035098405889 0.0003495361214 0.00034810464529 
0.00034669001478 0.00034529197858 0.00034391002319 0.00034254293146 0.00034119068954 0.00033985152168 0.00033852375102 0.00033720544419 0.00033589601582 
0.00033459420767 0.00033329727836 0.00033200646967 0.00033072093235 0.0003294407852 0.00032816610029 0.00032689769203 0.00032563766585 0.00032438617258 
0.0003231444876 0.00032191406825 0.00032069578378 0.00031948944971 0.00031829539261 0.00031711301344 0.00031594196147 0.00031478128711 0.00031363025284 
0.00031248857902 0.00031135563913 0.0003102311937 0.00030911599628 0.00030801072701 0.00030691559542 0.00030583203774 0.00030476008513 0.00030370101197 
0.0003026550371 0.00030162235481 0.00030060268933 0.00029959546659 0.00029860001999 0.00029761529662 0.00035660897904 0.00035510156982 0.00035360668824 
0.00035212543128 0.00035065722786 0.00034920519313 0.00034776901072 0.00034634888324 0.0003449446421 0.00034355702128 0.00034218521391 0.00034082830206 
0.00033948537726 0.00033815509056 0.00033683570988 0.00033552544821 0.00033422365455 0.00033292952797 0.00033164100353 0.00033035802305 0.00032908067618 
0.00032780850892 0.00032654221268 0.00032528241689 0.00032403055547 0.00032278794058 0.00032155507208 0.00032033376465 0.00031912380722 0.0003179260358 
0.00031674040665 0.00031556659558 0.00031440344872 0.00031325039355 0.00031210685246 0.00031097231226 0.00030984605802 0.00030872783735 0.0003076186669 
0.00030651864818 0.00030542861431 0.00030434954479 0.00030328211316 0.00030222692425 0.00030118473295 0.00030015535899 0.00029913895638 0.00029813459176 
0.00029714175018 0.00029615963716 0.00035473009079 0.00035323552069 0.00035175355352 0.00035028358536 0.00034882899138 0.00034738867759 0.0003459641691 
0.00034455572327 0.00034316294724 0.00034178607734 0.00034042459855 0.00033907738272 0.00033774394649 0.00033642169522 0.0003351103301 0.0003338088945 
0.0003325154499 0.00033122888996 0.00032994850009 0.0003286736894 0.00032740446526 0.00032614086186 0.00032488322105 0.00032363234613 0.00032238950704 
0.00032115553201 0.00031993236346 0.00031871969774 0.00031751858859 0.00031632941671 0.00031515181218 0.00031398601254 0.00031283074686 0.00031168520469 
0.00031054912492 0.00030942140937 0.00030830166229 0.00030718994746 0.00030608678164 0.00030499243114 0.0003039078238 0.00030283378862 0.0003017709855 
0.00030072038085 0.00029968196835 0.00029865636603 0.00029764303875 0.00029664189498 0.00029565203835 0.00029467245269 0.00035284241284 0.00035136129663 
0.00034989221648 0.00034843539998 0.00034699360356 0.00034556644071 0.00034415417189 0.00034275712767 0.00034137557733 0.00034000939962 0.00033865741607 
0.00033731988322 0.0003359955827 0.00033468238571 0.00033337953363 0.00033208605214 0.00033080045312 0.00032952182933 0.00032824969865 0.00032698296091 
0.0003257221175 0.00032446732228 0.00032321866999 0.00032197688231 0.00032074314841 0.00031951852147 0.00031830443959 0.00031710068541 0.0003159083407 
0.00031472733628 0.00031355815732 0.0003124000662 0.00031125227145 0.00031011404668 0.00030898487 0.00030786377423 0.00030675077958 0.00030564552483 
0.0003045486253 0.00030346028659 0.00030238135823 0.00030131281125 0.00030025498319 0.00029920897591 0.00029817475681 0.00029715305579 0.00029614330113 
0.00029514508684 0.0002941581417 0.00029318129418 0.00035097439552 0.0003495071065 0.00034805077178 0.00034660856938 0.00034517980798 0.00034376526884 
0.00034236510799 0.00034097913256 0.00033960875771 0.00033825286265 0.00033691145381 0.00033558345423 0.00033426766147 0.00033296289169 0.00033166834897 
0.00033038291446 0.00032910534513 0.00032783459896 0.00032657041546 0.00032531196613 0.00032405982654 0.00032281365904 0.00032157404514 0.00032034170588 
0.00031911735529 0.00031790228783 0.00031669666847 0.00031550216136 0.00031431823182 0.00031314570035 0.00031198409964 0.0003108335322 0.00030969291849 
0.00030856178986 0.00030743916711 0.00030632497029 0.00030521846971 0.00030411987581 0.00030302894549 0.00030194670789 0.00030087361838 0.00029981052296 
0.00029875832811 0.00029771708289 0.00029668723041 0.00029566959498 0.00029466369919 0.00029366872098 0.00029268468884 0.00029171072193 0.0003491506206 
0.00034769722133 0.00034625448173 0.00034482555979 0.00034340921415 0.00034200719004 0.00034061910288 0.00033924522655 0.00033788563643 0.00033654015127 
0.00033520808591 0.00033388922923 0.00033258181393 0.00033128553686 0.00032999919623 0.00032872134776 0.00032745169051 0.00032618874147 0.00032493263775 
0.00032368287854 0.00032243891681 0.00032120180226 0.0003199712286 0.00031874819134 0.00031753344439 0.00031632721584 0.00031513050895 0.00031394440366 
0.00031276925994 0.00031160469882 0.00031045068644 0.00030930724907 0.00030817369378 0.00030704915113 0.00030593296335 0.00030482510071 0.00030372495463 
0.00030263274865 0.00030154834886 0.00030047249858 0.00029940543246 0.00029834828128 0.00029730133536 0.00029626515254 0.00029524005248 0.00029422641447 
0.00029322422117 0.00029223304165 0.00029125199475 0.00029028091424 0.00034738900022 0.00034594783354 0.00034451969278 0.0003431041059 0.00034170101828 
0.0003403111333 0.00033893472354 0.00033757203545 0.00033622314258 0.00033488760124 0.00033356491355 0.00033225508355 0.00033095589746 0.0003296677636 
0.00032838902306 0.00032711891967 0.00032585686876 0.00032460170782 0.00032335370271 0.00032211206905 0.00032087679638 0.00031964854412 0.00031842742179 
0.00031721347925 0.00031600754537 0.00031481035055 0.00031362225718 0.00031244474883 0.00031127750417 0.00031012086179 0.00030897406054 0.00030783747887 
0.00030671039043 0.00030559256219 0.00030448273518 0.00030338123083 0.00030228734251 0.00030120122902 0.00030012323901 0.00029905354425 0.0002979925948 
0.00029694122735 0.00029590005487 0.000294869013 0.0002938488686 0.00029283942566 0.00029184134793 0.00029085335489 0.0002898757833 0.00028890745456 
0.00034570470653 0.00034427683891 0.00034286178063 0.00034145862249 0.00034006776259 0.00033868975739 0.00033732468742 0.00033597281885 0.00033463412504 
0.00033330801076 0.00033199510875 0.000330693053 0.00032940239573 0.00032812200614 0.00032685119472 0.00032558868348 0.00032433403811 0.0003230866424 
0.00032184670622 0.00032061323503 0.00031938668627 0.00031816699486 0.00031695447604 0.00031574970074 0.00031455245164 0.00031336399883 0.00031218461478 
0.00031101533462 0.00030985569048 0.00030870627437 0.00030756657591 0.00030643637203 0.00030531603346 0.00030420433129 0.00030310071637 0.00030200514281 
0.00030091739588 0.0002998377004 0.00029876584005 0.000297702188 0.00029664708798 0.0002956016867 0.00029456585142 0.00029354029111 0.00029252502571 
0.00029152035981 0.00029052606482 0.00028954186242 0.00028856738126 0.00028760211543 0.00034410568297 0.00034269190989 0.00034128921792 0.00033989827424 
0.00033851908485 0.00033715239099 0.0003357984139 0.00033445685302 0.0003331276995 0.0003318114723 0.00033050673941 0.00032921319484 0.00032793038803 
0.00032665774835 0.00032539438585 0.00032413934736 0.00032289231702 0.00032165284877 0.00032042067628 0.00031919542938 0.00031797715459 0.00031676583807 
0.00031556205852 0.00031436565606 0.00031317707371 0.00031199676196 0.00031082585213 0.00030966420339 0.00030851190754 0.00030736922874 0.00030623675037 
0.00030511319127 0.00030399876519 0.00030289292219 0.00030179530971 0.00030070572274 0.00029962401245 0.0002985501393 0.00029748435227 0.00029642681653 
0.00029537776895 0.00029433801479 0.0002933078109 0.00029228752285 0.00029127712809 0.0002902769119 0.00028928671951 0.00028830640341 0.00028733610725 
0.00028637397089 0.00034260104219 0.00034119921871 0.00033980827704 0.00033842874836 0.00033706080856 0.00033570500013 0.00033436103319 0.00033302958137 
0.00033171030152 0.00033040285521 0.00032910603026 0.00032782084556 0.00032654597071 0.00032528079944 0.00032402484118 0.00032277718061 0.00032153781785 
0.0003203059859 0.00031908153803 0.00031786430058 0.00031665425842 0.00031545115937 0.00031425539418 0.00031306725791 0.00031188687033 0.00031071491171 
0.00030955158534 0.00030839734359 0.00030725192945 0.00030611608665 0.00030498956394 0.00030387246705 0.0003027640392 0.00030166404079 0.00030057222581 
0.00029948838238 0.00029841230329 0.00029734437606 0.00029628451003 0.00029523277875 0.00029418950148 0.00029315542774 0.00029213079132 0.00029111553245 
0.00029011071051 0.0002891149493 0.00028812899456 0.00028715251246 0.00028618520382 0.00028522636832 0.00034119313805 0.00033980238785 0.00033842256667 
0.0003370538764 0.00033569669096 0.00033435090144 0.0003330165837 0.00033169495148 0.00033038431398 0.00032908505531 0.00032779725257 0.0003265195064 
0.00032525230409 0.00032399462619 0.00032274594975 0.00032150567875 0.00032027376121 0.00031904972927 0.00031783285598 0.00031662324567 0.0003154212902 
0.0003142260227 0.00031303794433 0.00031185765272 0.00031068524132 0.00030952086856 0.00030836487357 0.00030721746842 0.00030607911228 0.00030494965433 
0.00030382924784 0.00030271765188 0.00030161500883 0.00030052064702 0.00029943453532 0.00029835601283 0.00029728586853 0.00029622345209 0.00029516915372 
0.00029412315736 0.00029308663909 0.00029205808442 0.00029103864877 0.00029002838297 0.00028902742342 0.00028803621021 0.00028705442771 0.00028608173491 
0.00028511797319 0.00028416303836 0.00033988245508 0.00033850223055 0.00033713310359 0.00033577457955 0.00033442738254 0.00033309157921 0.00033176743903 
0.00033045423955 0.00032915254616 0.00032786127642 0.00032658138156 0.0003253114996 0.00032405171999 0.00032280129433 0.00032156013823 0.00032032715446 
0.00031910241084 0.00031788560886 0.00031667624618 0.00031547419395 0.00031427963472 0.00031309198579 0.00031191166611 0.00031073877408 0.00030957369544 
0.00030841627013 0.00030726736381 0.00030612681324 0.00030499497937 0.00030387154288 0.00030275698884 0.00030165109027 0.00030055376727 0.00029946456555 
0.00029838428492 0.00029731110357 0.0002962460514 0.00029518931687 0.00029414060215 0.00029310022294 0.00029206828804 0.00029104512491 0.00029003072872 
0.0002890256678 0.00028802963326 0.00028704269311 0.00028606496601 0.0002850965166 0.00028413664356 0.00028318542992 0.00033866932169 0.00033729913532 
0.00033593999715 0.00033459137683 0.00033325349335 0.00033192713215 0.00033061170049 0.00032930744012 0.00032801319991 0.00032673075387 0.00032545849961 
0.00032419638351 0.00032294370749 0.00032170057972 0.00032046649705 0.00031924085996 0.00031802335429 0.00031681371162 0.00031561152523 0.00031441714639 
0.00031322960911 0.00031204922714 0.00031087598587 0.00030971019515 0.00030855186959 0.00030740147449 0.000306259147 0.00030512503853 0.000303999635 
0.0003028820922 0.00030177327189 0.00030067264004 0.00029958031149 0.0002984966114 0.00029742045625 0.00029635239698 0.00029529263408 0.00029424094077 
0.00029319766576 0.00029216254376 0.00029113582682 0.00029011768282 0.00028910820152 0.00028810766392 0.00028711635169 0.00028613402237 0.00028516074192 
0.000284196379 0.00028324058677 0.00028229309851 0.00033755408917 0.0003361934383 0.00033484348099 0.0003335040585 0.00033217593362 0.00033085784865 
0.00032955061076 0.0003282539782 0.00032696816329 0.00032569295808 0.00032442824993 0.00032317332771 0.00032192794617 0.0003206921304 0.00031946518111 
0.00031824640537 0.00031703593346 0.00031583332997 0.00031463848766 0.00031345088137 0.00031227047089 0.00031109770975 0.00030993126462 0.00030877224127 
0.00030762049244 0.00030647628984 0.00030534005223 0.0003042120335 0.00030309191803 0.00030197958706 0.0003008760119 0.00029978056138 0.00029869331793 
0.0002976140216 0.00029654314731 0.00029548004553 0.00029442504792 0.00029337850267 0.0002923403416 0.00029131001482 0.00029028819141 0.00028927511407 
0.00028827077401 0.00028727533868 0.00028628864021 0.00028531079746 0.0002843421627 0.00028338174089 0.0002824301771 0.00028148673579 0.00033653582216 
0.00033518403972 0.00033384274036 0.00033251271122 0.00033119254624 0.00032988272043 0.00032858381277 0.00032729452471 0.00032601642474 0.00032474893116 
0.00032349201494 0.00032224453216 0.00032100612378 0.00031977738976 0.00031855733252 0.00031734544906 0.00031614200524 0.00031494655481 0.00031375818863 
0.00031257712841 0.00031140343604 0.00031023643056 0.00030907663258 0.00030792406585 0.00030677856716 0.00030564025757 0.00030450973053 0.00030338727063 
0.00030227233831 0.00030116543682 0.00030006670393 0.00029897582437 0.00029789332185 0.00029681875907 0.00029575257696 0.0002946942534 0.0002936440822 
0.00029260215246 0.00029156849279 0.00029054306537 0.00028952598355 0.00028851765975 0.00028751806868 0.00028652723834 0.00028554535441 0.0002845720754 
0.00028360782105 0.00028265179481 0.00028170430591 0.0002807652849 0.00033561375575 0.00033427048752 0.00033293808067 0.00033161578728 0.00033030356283 
0.00032900190857 0.00032771019639 0.00032642902753 0.00032515828806 0.0003238977747 0.00032264748576 0.00032140679011 0.00032017568178 0.00031895379896 
0.00031774037177 0.00031653518366 0.00031533835148 0.00031414977918 0.00031296800848 0.00031179347022 0.00031062577369 0.0003094653216 0.00030831174405 
0.0003071650029 0.00030602527399 0.00030489267108 0.00030376742762 0.00030264993384 0.00030154026483 0.00030043821367 0.00029934380854 0.0002982575241 
0.00029717945295 0.00029610947383 0.00029504734941 0.00029399378925 0.00029294814115 0.00029191071219 0.00029088150122 0.00028986068605 0.00028884830246 
0.00028784457711 0.00028684972446 0.00028586322703 0.00028488568723 0.00028391707376 0.00028295687958 0.0002820054059 0.00028106248433 0.00028012753078 
0.00033478669792 0.00033345184615 0.00033212652684 0.00033081179066 0.00032950736531 0.00032821290236 0.00032692918005 0.00032565515353 0.0003243913588 
0.00032313800374 0.000321894663 0.00032066105386 0.00031943651007 0.00031822126129 0.00031701458341 0.00031581610815 0.00031462604988 0.00031344342185 
0.00031226821833 0.00031110005903 0.00030993824699 0.00030878374185 0.00030763601544 0.0003064948343 0.00030536043112 0.0003042331707 0.00030311278033 
0.00030200002216 0.00030089498393 0.00029979731067 0.00029870738316 0.00029762531631 0.00029655132157 0.0002954853656 0.00029442740606 0.00029337754606 
0.00029233653712 0.00029130328825 0.00029027835788 0.00028926213965 0.00028825428701 0.00028725499289 0.00028626435965 0.00028528243165 0.00028430943205 
0.00028334499079 0.00028238954552 0.000281442626 0.0002805040922 0.00027957392944 0.00033405490117 0.00033272715857 0.00033140929819 0.00033010175414 
0.00032880476318 0.00032751751948 0.00032624062249 0.00032497366016 0.00032371670972 0.00032246998203 0.0003212332309 0.00032000636021 0.00031878860713 
0.00031757971171 0.00031637948913 0.00031518801307 0.00031400402769 0.00031282782096 0.00031165860007 0.00031049616157 0.00030934058204 0.00030819156425 
0.00030704913165 0.00030591324894 0.00030478397889 0.00030366153823 0.00030254592991 0.00030143738944 0.00030033630991 0.00029924274249 0.00029815675091 
0.0002970786805 0.00029600822931 0.00029494611953 0.00029389194545 0.00029284607437 0.00029180893545 0.00029077978511 0.00028975912927 0.00028874713963 
0.00028774352027 0.00028674859564 0.00028576233365 0.00028478479819 0.00028381623536 0.00028285655478 0.0002819055174 0.00028096324542 0.00028002940134 
0.00027910409648 0.00033341774493 0.00033209713082 0.00033078634282 0.00032948598758 0.00032819519041 0.00032691502834 0.0003256447401 0.00032438450412 
0.00032313407639 0.00032189387196 0.00032066359262 0.00031944301907 0.0003182315627 0.00031702913643 0.00031583564547 0.0003146502601 0.0003134726762 
0.0003123024117 0.00031113868018 0.00030998251534 0.00030883247336 0.00030768887795 0.0003065513943 0.00030542037698 0.00030429563145 0.00030317748712 
0.00030206599835 0.00030096148255 0.00029986427575 0.00029877419792 0.00029769176968 0.00029661696795 0.00029555014161 0.00029449145971 0.00029344101173 
0.00029239851901 0.00029136488957 0.00029033992135 0.00028932324392 0.00028831523318 0.0002873158188 0.00028632503743 0.00028534328823 0.00028437012492 
0.00028340614504 0.00028245103411 0.00028150441381 0.00028056697671 0.00027963815537 0.00027871754945 0.00033287616137 0.00033156217028 0.00033025831212 
0.00032896391126 0.00032768005431 0.00032640619347 0.00032514217711 0.00032388797906 0.00032264385327 0.0003214097152 0.00032018481461 0.00031897042172 
0.00031776526797 0.00031656949023 0.0003153817027 0.00031420266684 0.00031303107946 0.00031186658839 0.00031070887778 0.00030955796002 0.00030841310133 
0.00030727463383 0.00030614187237 0.0003050151485 0.00030389450943 0.00030278050369 0.0003016728522 0.00030057179408 0.00029947793696 0.00029839081775 
0.00029731146056 0.00029623973873 0.00029517626402 0.000294120593 0.00029307325019 0.00029203457669 0.00029100412355 0.00028998254052 0.00028896976114 
0.00028796562801 0.00028697035084 0.00028598390194 0.00028500610278 0.00028403747618 0.00028307817466 0.00028212849724 0.00028118711407 0.00028025473921 
0.00027933129911 0.00027841572336 0.00033243005866 0.00033112209988 0.00032982433402 0.00032853624456 0.00032725824864 0.00032599052734 0.00032473206946 
0.00032348377676 0.00032224533816 0.00032101713964 0.00031979883822 0.00031859040911 0.00031739154095 0.00031620130095 0.00031501970413 0.00031384642929 
0.00031268067563 0.00031152203231 0.00031037014074 0.00030922422453 0.00030808423696 0.00030695024882 0.00030582199789 0.00030469931328 0.00030358277439 
0.00030247229596 0.00030136763181 0.00030026931558 0.00029917827576 0.00029809414941 0.00029701733174 0.00029594838837 0.00029488751981 0.00029383457293 
0.00029279018926 0.00029175467035 0.00029072753769 0.00028970935554 0.00028869993605 0.00028769945025 0.00028670823971 0.00028572593582 0.00028475288798 
0.00028378883459 0.00028283417101 0.0002818890693 0.00028095273306 0.0002800254802 0.00027910671212 0.00027819674879 0.00033208030977 0.00033077808887 
0.00032948556928 0.00032820362904 0.00032693127634 0.0003256689654 0.00032441589355 0.00032317310923 0.00032194017959 0.00032071742027 0.00031950457383 
0.00031830152566 0.00031710852662 0.00031592401105 0.00031474816867 0.00031358075988 0.00031242066281 0.00031126761222 0.0003101210008 0.00030898032785 
0.00030784483886 0.00030671515531 0.00030559073988 0.00030447197354 0.00030335859108 0.00030225082136 0.00030114891647 0.00030005327073 0.00029896442476 
0.00029788261043 0.00029680803317 0.00029574121469 0.00029468268643 0.00029363229516 0.00029259019215 0.00029155764402 0.00029053366487 0.00028951889725 
0.00028851293141 0.00028751640197 0.00028652909245 0.00028555086497 0.00028458193126 0.00028362276763 0.00028267309859 0.00028173284911 0.00028080176509 
0.00027987987117 0.00027896682393 0.00027806243439 0.00033182567043 0.00033052832385 0.00032924147225 0.00032796472558 0.00032669794372 0.00032544063992 
0.00032419243679 0.00032295433909 0.0003217263121 0.00032050841495 0.00031930072353 0.00031810339885 0.00031691543328 0.00031573636469 0.00031456631791 
0.00031340437502 0.00031225023939 0.00031110224918 0.00030996084264 0.00030882490137 0.00030769398826 0.00030656783456 0.00030544736688 0.00030433167787 
0.00030322112937 0.00030211558792 0.0003010161237 0.00029992233185 0.00029883533442 0.00029775473596 0.00029668192087 0.00029561716654 0.00029456053859 
0.00029351219831 0.00029247302211 0.00029144299061 0.00029042196273 0.00028941013251 0.00028840765605 0.00028741410987 0.00028643087939 0.00028545735743 
0.00028449290863 0.00028353815137 0.00028259342414 0.00028165824437 0.00028073267655 0.00027981643221 0.00027890936061 0.00027801102262 0.0003316640069 
0.00033037207981 0.00032908998422 0.00032781806088 0.00032655581816 0.0003253030025 0.00032405943163 0.0003228256019 0.00032160196298 0.00032038866552 
0.0003191860171 0.00031799332648 0.00031681036975 0.00031563670093 0.0003144719799 0.00031331569607 0.00031216652185 0.0003110239971 0.0003098873221 
0.00030875580988 0.00030762887551 0.00030650690273 0.00030538945173 0.00030427638426 0.00030316762848 0.00030206419502 0.00030096637329 0.00029987418398 
0.00029878827503 0.00029770922593 0.00029663789638 0.00029557446754 0.00029451937159 0.00029347309742 0.00029243611013 0.00029140818544 0.00029038960688 
0.00028938061014 0.00028838171853 0.00028739194393 0.00028641249689 0.00028544267343 0.00028448275364 0.00028353278621 0.00028259303451 0.00028166325412 