# vtk DataFile Version 5.1
vtk output
ASCII
DATASET STRUCTURED_POINTS
DIMENSIONS 50 50 50
SPACING 0.002 0.002 0.002
ORIGIN 0.2174 -0.052672 0.02732
POINT_DATA 125000
FIELD FieldData 1
potential 1 125000 double
0.00061339930931 0.00060989328305 0.00060641252577 0.00060295500707 0.00059952097373 0.0005961100378 0.00059272644232 0.00058937054566 0.00058604395123 
0.00058274794002 0.0005794862082 0.00057625903021 0.00057306647667 0.00056990873532 0.00056678499344 0.00056369690353 0.00056063468918 0.00055760028103 
0.00055458958443 0.00055160240935 0.00054863689651 0.00054569125548 0.00054276590747 0.00053986080638 0.00053697652642 0.00053411471453 0.00053127690795 
0.00052846436932 0.00052567896371 0.00052292235916 0.00052019550648 0.00051749927802 0.00051483452444 0.00051220133162 0.00050959960107 0.00050702849548 
0.00050448809919 0.00050197767037 0.00049949784412 0.00049704762713 0.00049462856815 0.00049224054763 0.00048988307321 0.00048755623185 0.00048526085244 
0.00048299434061 0.00048075599157 0.00047854312015 0.00047635352242 0.00047418572551 0.00061700323836 0.00061346234958 0.00060994781512 0.0006064575511 
0.00060299134419 0.00059955038384 0.00059613740857 0.00059275371035 0.00058939873455 0.00058607766462 0.00058279038346 0.00057953826016 0.0005763208033 
0.00057313919012 0.00056999068592 0.00056687826126 0.0005637916356 0.00056073232228 0.00055769724971 0.00055468482181 0.00055169447936 0.00054872421451 
0.00054577410234 0.00054284460439 0.00053993626613 0.00053705103256 0.00053418984802 0.0005313547265 0.00052854747149 0.00052576928521 0.00052302165283 
0.00052030501681 0.00051762015823 0.00051496687312 0.00051234582523 0.000509755283 0.00050719517714 0.00050466510527 0.0005021654899 0.00049969592661 
0.00049725790903 0.00049485098223 0.00049247527615 0.00049013056055 0.00048781699282 0.00048553318123 0.00048327781051 0.00048104817617 0.00047884296387 
0.00047665901405 0.00062035610629 0.00061678122166 0.00061323339774 0.00060971146736 0.0006062159815 0.00060274554104 0.00059930498039 0.000595894917 
0.00059251460476 0.00058916904924 0.00058585789664 0.00058258171682 0.00057934163871 0.00057613615769 0.00057296459369 0.00056982468441 0.00056671826992 
0.00056363504665 0.00056057604874 0.00055754028325 0.00055452593414 0.00055153226683 0.00054855917803 0.00054560683805 0.00054267629332 0.00053976886803 
0.00053688652394 0.00053403069657 0.00053120328251 0.00052840599712 0.0005256395783 0.00052290442431 0.00052020120959 0.00051752990803 0.00051489005479 
0.00051228164279 0.00050970308448 0.00050715502506 0.00050463647223 0.00050214854171 0.00049969143903 0.00049726651729 0.00049487248984 0.0004925094075 
0.00049017769406 0.00048787604355 0.00048560328757 0.00048335608699 0.00048113376272 0.00047893326368 0.00062339944165 0.00061979301596 0.00061621353463 
0.00061266230033 0.00060913876758 0.0006056413845 0.0006021751871 0.00059874023875 0.0005953365701 0.00059196800292 0.00058863476637 0.00058533700026 
0.00058207530714 0.00057884775832 0.00057565440893 0.00057249266893 0.00056936009735 0.00056625855634 0.00056317720052 0.00056011922718 0.00055708239057 
0.00055406676262 0.0005510720088 0.0005480984029 0.0005451474894 0.00054222020426 0.00053931859114 0.00053644449224 0.00053359941626 0.00053078465586 
0.00052800120108 0.00052524998107 0.00052253063286 0.00051984291362 0.00051718668376 0.00051456099628 0.00051196581931 0.00050940011109 0.00050686444503 
0.00050435864951 0.000501883933 0.00049944097135 0.00049702882989 0.00049464724195 0.00049229716226 0.0004899774478 0.00048768690143 0.00048542278869 
0.00048318326374 0.00048096576593 0.00062608780212 0.00062245178835 0.00061884479236 0.00061526590244 0.00061171607739 0.00060819564716 0.00060470448358 
0.00060124619251 0.0005978223899 0.00059443281231 0.00059107942446 0.00058776162187 0.00058448012911 0.00058123297124 0.00057801939271 0.00057483743767 
0.00057168438329 0.00056855840489 0.000565460258 0.00056238142217 0.00055932442047 0.0005562886972 0.00055327396434 0.00055028126526 0.00054731150834 
0.00054436645519 0.00054144801691 0.00053855754889 0.00053569688653 0.00053286727557 0.0005300693237 0.00052730356035 0.00052456989252 0.00052186804552 
0.00051919702563 0.0005165558833 0.00051394562262 0.00051136408495 0.00050881233734 0.00050628954876 0.00050379837792 0.00050133774053 0.00049890784083 
0.00049650919565 0.00049414116923 0.00049180362173 0.00048949489571 0.00048721382427 0.00048495677963 0.0004827224514 0.00062839172764 0.00062472959019 
0.00062109686105 0.00061749333679 0.00061391978152 0.00061037730467 0.00060686518292 0.00060338660857 0.00059994335821 0.00059653557885 0.00059316381755 
0.0005898285965 0.00058652930513 0.00058326458748 0.00058003238621 0.00057683208269 0.00057366087737 0.00057051597617 0.00056739536874 0.0005643015838 
0.00056122656548 0.00055817236257 0.00055513964447 0.00055212985206 0.00054914367516 0.00054618241817 0.0005432490831 0.00054034478723 0.00053747074162 
0.00053462839095 0.00053181803824 0.00052904015493 0.0005262943687 0.00052357995419 0.00052089597811 0.00051824220255 0.00051561774855 0.00051302226329 
0.00051045496917 0.000507916794 0.00050540935842 0.00050293210652 0.00050048552595 0.00049806996477 0.0004956849325 0.00049333029905 0.00049100436549 
0.00048870639596 0.000486432692 0.00048418202733 0.00063029911828 0.00062661388168 0.00062295816388 0.00061933286262 0.00061573840342 0.00061217628048 
0.00060864461441 0.00060514959591 0.00060168952962 0.00059826567802 0.00059487822961 0.00059152753772 0.00058821225468 0.00058493172113 0.00058168403307 
0.00057846712928 0.00057527942732 0.0005721180671 0.00056898059771 0.00056586622524 0.00056277884628 0.00055970813073 0.00055665980841 0.00055363471758 
0.00055063410058 0.00054765928727 0.00054471310756 0.00054179637889 0.00053891121713 0.00053605814662 0.00053323747513 0.00053044980294 0.00052769340675 
0.00052496864877 0.00052227397813 0.00051960874994 0.00051697180069 0.00051436370517 0.00051178286728 0.00050923044698 0.00050670792626 0.00050421492735 
0.0005017525328 0.00049932057773 0.00049691976729 0.0004945487068 0.00049220645556 0.00048989235071 0.00048760275658 0.00048533716926 0.00063181740225 
0.00062811102176 0.00062443575904 0.00062079173966 0.00061717957632 0.0006136004791 0.00061005224921 0.0006065426487 0.00060306849212 0.00059963056237 
0.00059622965891 0.00059286514314 0.00058953667241 0.0005862423932 0.00058298116319 0.00057974960882 0.00057654729496 0.00057337149752 0.00057021910515 
0.00056708973133 0.00056398399083 0.000560902803 0.0005578409273 0.00055480276867 0.00055178989643 0.00054880369161 0.00054584656725 0.00054291981076 
0.00054002527935 0.00053716313415 0.00053433461709 0.00053153799782 0.00052877336643 0.00052603993147 0.00052333624498 0.00052066086788 0.00051801365029 
0.00051539378352 0.00051280072795 0.00051023562311 0.00050769915047 0.00050519258899 0.00050271547858 0.00050026834186 0.00049785198104 0.00049546588763 
0.00049310821905 0.00049077857534 0.0004884747632 0.00048619365809 0.00063296980065 0.00062924656027 0.00062555469117 0.00062189507488 0.00061826809081 
0.00061467327632 0.00061111346205 0.00060759081081 0.00060410448925 0.00060065507367 0.00059724247432 0.00059386637078 0.00059052615681 0.0005872200801 
0.00058394656727 0.00058070270343 0.00057748794333 0.00057429891593 0.00057113364025 0.00056799175726 0.00056487295319 0.00056178055063 0.00055870661452 
0.00055565727087 0.00055263413811 0.00054963849677 0.00054667161534 0.00054373660944 0.00054083410652 0.00053796607204 0.00053513038585 0.00053232702926 
0.00052955573991 0.00052681493981 0.00052410390516 0.00052142003378 0.00051876307478 0.00051613280394 0.0005135294417 0.00051095276682 0.00050840367133 
0.00050588334201 0.00050339236517 0.00050093139914 0.00049850094356 0.00049610057823 0.00049372829614 0.00049138441139 0.00048906633758 0.0004867716581 
0.00063379925291 0.00063006285687 0.00062635769368 0.00062268500622 0.00061904601696 0.00061543957981 0.00061186912424 0.00060833601279 0.00060483834992 
0.00060137881821 0.00059795633947 0.00059457017541 0.00059122012965 0.0005879040964 0.00058461967174 0.00058136494398 0.00057813869127 0.00057493835037 
0.00057176265163 0.00056860958874 0.00056548014732 0.00056237371751 0.00055929420329 0.00055623522861 0.00055320314727 0.00055019940757 0.00054722556985 
0.00054428394514 0.00054137542261 0.00053850110818 0.0005356596361 0.0005328510692 0.00053007386254 0.00052732721238 0.00052460910756 0.00052191801337 
0.00051925327482 0.00051661416567 0.00051400040631 0.00051141365866 0.00050885293225 0.00050632078606 0.00050381714497 0.00050134344058 0.00049889991503 
0.00049648586473 0.00049410074483 0.00049174311895 0.00048941220272 0.00048710458255 0.00063435717613 0.00063060977623 0.0006268950349 0.00062321285997 
0.00061956282145 0.00061594895201 0.00061236934566 0.00060882781611 0.00060532296607 0.00060185532566 0.00059842438731 0.00059502967193 0.00059167022285 
0.00058834470109 0.00058505033553 0.00058178661564 0.00057855011472 0.00057534008556 0.00057215468763 0.0005689920429 0.0005658536808 0.0005627382415 
0.000559646079 0.00055658356244 0.00055354452234 0.00055053436428 0.00054755467896 0.00054460737333 0.00054169450354 0.00053881503878 0.00053596917854 
0.00053315588985 0.00053037394255 0.00052762202836 0.00052489788958 0.00052220044464 0.00051952849366 0.00051688071585 0.00051425828913 0.00051166239904 
0.00050909170412 0.00050654876664 0.00050403388884 0.00050154817115 0.00049909232937 0.00049666595635 0.00049426851178 0.00049189851683 0.00048955462458 
0.00048723473157 0.00063470776653 0.00063095283843 0.00062722975733 0.00062354040606 0.00061988392026 0.0006162626281 0.00061267714645 0.0006091277073 
0.00060561605155 0.00060214162467 0.00059870357968 0.00059530103618 0.00059193388601 0.00058860005178 0.00058529775336 0.00058202464943 0.00057877963392 
0.00057556114089 0.00057236617407 0.00056919537539 0.00056604824973 0.00056292567745 0.00055982708138 0.00055675383458 0.00055371337742 0.00055069803617 
0.00054771356884 0.00054476223714 0.00054184474557 0.0005389613385 0.00053611177367 0.00053329447777 0.00053050838625 0.00052775145809 0.00052502178546 
0.00052231848233 0.00051963983956 0.00051698492935 0.00051435467505 0.00051174982706 0.00050916996858 0.00050661746341 0.000504092123 0.00050159584007 
0.00049912867372 0.00049669085478 0.00049428165423 0.00049189987372 0.0004895442491 0.00048721267828 0.00063491911621 0.00063115771241 0.00062742897077 
0.00062373387938 0.00062007209039 0.00061644581654 0.00061285544469 0.00060930046949 0.00060578263887 0.00060230151142 0.00059885682098 0.00059544756438 
0.0005920730289 0.00058873156414 0.00058542066846 0.00058213901534 0.00057888538412 0.00057565889889 0.00057245650167 0.00056927826346 0.00056612523657 
0.00056299611113 0.00055989210772 0.00055681419886 0.00055376475354 0.00055074871588 0.00054776057645 0.00054480573444 0.00054188447102 0.00053899738276 
0.00053614401407 0.00053332330136 0.00053053274321 0.00052777091535 0.00052503622305 0.0005223273018 0.00051964247699 0.00051698065278 0.00051434322131 
0.00051172984142 0.00050914155377 0.0005065798287 0.00050404531906 0.00050153880393 0.00049906133191 0.00049661265786 0.0004941926554 0.00049179958617 
0.0004894323298 0.00048708922779 0.00063505569109 0.00063129012498 0.00062755763465 0.00062385729901 0.0006201922845 0.00061656157404 0.00061296644699 
0.00060940737517 0.00060588434416 0.00060239769169 0.00059894685381 0.00059553077522 0.00059214933499 0.00058879951648 0.00058548054552 0.00058219081693 
0.00057892941346 0.00057569438399 0.00057248510678 0.00056930017737 0.00056614082007 0.00056300656921 0.00055989788658 0.00055681587478 0.00055376290889 
0.00055073985555 0.00054775304531 0.00054479510678 0.00054187079933 0.0005389802909 0.00053612194984 0.00053329705159 0.00053050210504 0.00052773535153 
0.00052499575277 0.00052228081699 0.00051958953793 0.00051692129069 0.00051427672665 0.00051165574011 0.00050905944272 0.00050648927284 0.00050394574444 
0.00050143032563 0.00049894283636 0.00049648403751 0.00049405294598 0.00049164893238 0.00048927076017 0.00048691606404 0.00063517964371 0.00063141086532 
0.00062767519437 0.00062397191796 0.00062030367396 0.0006166702569 0.00061307152868 0.00060950748299 0.00060597977205 0.00060248774824 0.00059903051588 
0.00059560778066 0.0005922188373 0.00058886104828 0.00058553402181 0.00058223658608 0.00057896670992 0.00057572399152 0.0005725079855 0.00056931648653 
0.00056615131437 0.00056301240365 0.00055989966622 0.00055681422536 0.00055375784213 0.00055073218243 0.00054774252214 0.00054478159859 0.00054185413138 
0.00053895962024 0.0005360983529 0.00053326874524 0.00053046880582 0.0005276967827 0.00052495059407 0.00052222933578 0.00051953187629 0.00051685714112 
0.00051420574145 0.00051157761672 0.00050897378313 0.00050639577356 0.00050384368042 0.00050131917042 0.00049882213435 0.00049635335536 0.00049391176836 
0.00049149655763 0.00048910714005 0.0004867410179 0.00063534668874 0.00063157538633 0.00062783599426 0.00062413127734 0.00062046019191 0.0006168235833 
0.00061322110228 0.00060965248186 0.00060611986854 0.00060262174776 0.00059915865576 0.00059572918625 0.00059233204082 0.00058896626416 0.00058563109656 
0.00058232529362 0.00057904801859 0.00057579715965 0.00057257387181 0.00056937604349 0.0005662056745 0.00056306171701 0.0005599451096 0.00055685670663 
0.00055379749946 0.00055076913909 0.00054777222415 0.00054481267467 0.00054188150432 0.00053898348635 0.00053611720437 0.00053328249373 0.00053047693209 
0.00052769912483 0.00052494689429 0.00052221963454 0.00051951541181 0.00051683436409 0.0005141748255 0.00051153951808 0.00050892803703 0.00050634192848 
0.00050378219125 0.00050124866095 0.00049874191696 0.00049626314413 0.00049381144054 0.00049138499994 0.00048898395815 0.00048660656088 0.00063560328122 
0.00063182933145 0.00062808710174 0.00062437931634 0.00062070489797 0.00061706479375 0.00061345850532 0.00060988588846 0.00060634779927 0.00060284379962 
0.00059937322947 0.00059593640999 0.0005925308848 0.00058915704687 0.00058581362743 0.00058249909338 0.00057921362542 0.00057595513706 0.00057272435607 
0.00056952062929 0.00056634398212 0.0005631958629 0.000560075127 0.00055698342451 0.00055392128708 0.00055088975007 0.00054788960161 0.00054492231828 
0.00054199179959 0.00053908925303 0.00053621800343 0.00053337740276 0.00053056585243 0.00052778126146 0.00052502185028 0.00052228726857 0.00051957581892 
0.00051688767409 0.00051422203253 0.00051157965168 0.00050896056373 0.00050636679804 0.00050379769691 0.00050125516761 0.00049873901612 0.00049624975204 
0.00049378715845 0.00049135030775 0.00048893743713 0.0004865482417 0.00063598594316 0.00063220699428 0.00062846235795 0.00062475156884 0.00062107363635 
0.00061742919331 0.00061381820287 0.00061024048108 0.00060669684451 0.00060318625333 0.00059970844928 0.00059626348369 0.00059284969042 0.00058946727203 
0.00058611455636 0.00058279118854 0.00057949697805 0.00057623040115 0.00057299275852 0.00056978195428 0.0005665997845 0.00056344670413 0.00056032257001 
0.00055722651225 0.00055416092143 0.00055112593139 0.00054812187255 0.00054515079164 0.00054221148037 0.00053930804645 0.00053643077275 0.00053358354291 
0.00053076483924 0.00052797352812 0.00052520675919 0.00052246469167 0.00051974544233 0.00051704919028 0.00051437604912 0.00051172585236 0.00050909884829 
0.00050649664164 0.00050391983938 0.00050136793367 0.0004988423044 0.00049634172545 0.00049386848683 0.00049141953881 0.000488995267 0.00048659344028 
0.00063652331842 0.0006327398364 0.00062899073676 0.00062527481109 0.00062159201282 0.0006179425423 0.00061432608522 0.00061074249319 0.0006071923741 
0.00060367420221 0.0006001893554 0.00059673559753 0.00059331296072 0.00058992111499 0.0005865596978 0.00058322718692 0.0005799238382 0.00057664886316 
0.00057340375846 0.00057018638517 0.00056699833859 0.00056383952814 0.0005607102499 0.00055761046352 0.00055454039551 0.00055150129757 0.00054849317065 
0.00054551752366 0.00054257268954 0.00053966304991 0.00053677940592 0.00053392461777 0.00053109877129 0.0005282992307 0.00052552439473 0.00052277377209 
0.00052004631392 0.00051734214709 0.00051466054237 0.00051200170268 0.00050936569322 0.00050675486314 0.00050416829726 0.00050160722681 0.0004990713314 
0.00049656107272 0.00049407595444 0.00049161539852 0.0004891778545 0.00048676352119 0.00063723514308 0.00063344546732 0.00062969026559 0.00062596858097 
0.000622279496 0.0006186238036 0.00061500123252 0.00061141119221 0.00060785258969 0.00060432727241 0.00060083325829 0.00059737086556 0.00059393887 
0.00059053752819 0.00058716634185 0.00058382440796 0.00058051191421 0.00057722904924 0.00057397579208 0.00057075178581 0.00056755698394 0.00056439175127 
0.00056125671663 0.00055815199091 0.00055507728047 0.00055203274446 0.00054902016533 0.00054603862684 0.00054308750884 0.00054016668908 0.00053728052702 
0.0005344183476 0.000531583756 0.00052877522959 0.00052599157384 0.00052323197875 0.00052049554448 0.00051778193995 0.00051509123166 0.0005124233811 
0.00050977825811 0.00050715745391 0.00050456112311 0.00050198971988 0.00049944291241 0.0004969210766 0.00049442400194 0.00049195133169 0.00048950211994 
0.0004870747922 0.00063813523258 0.0006343374357 0.00063057424313 0.00062684464322 0.00062314825357 0.00061948527173 0.00061585442595 0.00061225690015 
0.00060869038855 0.00060515670235 0.00060165299888 0.00059818113653 0.00059473963205 0.00059132840983 0.00058794727202 0.00058459538244 0.00058127404629 
0.00057798247287 0.00057472081458 0.00057148926639 0.00056828760071 0.00056511516148 0.00056197405886 0.00055886342008 0.00055578303607 0.00055273333187 
0.00054971437527 0.00054672626928 0.00054376788993 0.00054083978969 0.00053794080695 0.00053507446338 0.00053223094134 0.00052941305732 0.00052661980176 
0.0005238503897 0.00052110379771 0.00051838044693 0.00051567986153 0.00051300178075 0.00051034630293 0.00050771497156 0.0005051080215 0.00050252493939 
0.00049996691026 0.00049743284398 0.00049492332289 0.00049243755699 0.00048997505873 0.00048753432907 0.00063923215742 0.00063542435297 0.00063165007976 
0.00062791126006 0.00062420601224 0.00062053364005 0.00061689425981 0.00061328800976 0.00060971228955 0.00060616893607 0.00060265670949 0.00059917394456 
0.00059572247169 0.00059230112437 0.00058890981036 0.00058554819655 0.00058221729302 0.00057891713453 0.00057564675354 0.0005724067855 0.00056919738076 
0.00056601839654 0.00056286940481 0.00055975198355 0.00055666531396 0.00055360903864 0.00055058299747 0.00054758706889 0.00054462139711 0.00054168487724 
0.00053877707696 0.00053589674028 0.00053304751144 0.00053021949352 0.00052741613817 0.00052463561882 0.0005218786772 0.00051914414393 0.00051643233208 
0.00051374319696 0.00051107769681 0.00050843482643 0.00050581572655 0.0005032202969 0.00050064897792 0.00049810217194 0.00049557935575 0.00049307994848 
0.00049060348124 0.0004881497044 0.00064052719441 0.00063670731772 0.00063292421255 0.0006291726003 0.0006254569707 0.00062177481987 0.00061812574212 
0.00061450868179 0.00061092357025 0.00060736958711 0.00060384712967 0.00060035430442 0.00059689231066 0.00059346035632 0.00059005922175 0.0005866876502 
0.00058334659807 0.00058003653966 0.00057675714295 0.00057350871072 0.00057029064438 0.00056710381014 0.00056394795292 0.00056082232618 0.00055772808803 
0.00055466374325 0.00055163010038 0.00054862634474 0.0005456522482 0.00054270639024 0.00053978890654 0.00053689854281 0.00053403835968 0.00053119906648 
0.00052838457862 0.00052559250782 0.00052282350745 0.00052007759331 0.00051735394252 0.00051465290726 0.00051197420151 0.0005093188694 0.00050668657984 
0.00050407856439 0.00050149395675 0.00049893308786 0.00049639589798 0.0004938828133 0.00049139231209 0.00048892433873 0.00064202358393 0.00063819019813 
0.0006343944955 0.00063063272583 0.00062690301851 0.00062320926243 0.00061954909393 0.00061592154809 0.0006123244114 0.00060875991856 0.00060522649911 
0.00060172349385 0.00059825022285 0.00059480771908 0.00059139579032 0.0005880141496 0.00058466324948 0.00058134332567 0.00057805423488 0.00057479689236 
0.00057157004079 0.00056837461259 0.00056521000775 0.00056207645314 0.0005589729418 0.00055590051251 0.00055285827161 0.00054984564385 0.00054686183058 
0.00054390611073 0.00054097847674 0.00053807697236 0.00053520098249 0.00053235452289 0.00052952677556 0.00052672226914 0.00052394087158 0.00052118179152 
0.00051844522934 0.0005157308041 0.00051303866086 0.00051036935262 0.00050772296518 0.00050510059019 0.00050250169311 0.00049992648388 0.00049737494612 
0.0004948470668 0.00049234198817 0.00048985930514 0.00064372215835 0.00063987377573 0.00063606307584 0.00063228735082 0.00062854697069 0.00062483818205 
0.00062116499561 0.00061752479255 0.00061391612548 0.00061033963007 0.000606794819 0.00060328028012 0.00059979607095 0.00059634313174 0.0005929205983 
0.000589528053 0.00058616690076 0.00058283695113 0.00057953805387 0.00057627101819 0.00057303542308 0.0005698312452 0.00056665751017 0.00056351484744 
0.00056040258796 0.00055731990378 0.0005542677715 0.0005512454799 0.00054825135813 0.00054528417233 0.00054234512188 0.00053943185388 0.00053654387706 
0.0005336796864 0.00053084360577 0.00052802571815 0.00052523031926 0.00052245752164 0.00051970730086 0.0005169780637 0.00051427094093 0.00051158701956 
0.00050892607024 0.00050628858021 0.00050367438143 0.00050108389884 0.0004985176987 0.00049597389699 0.00049345388613 0.00049095597232 0.00064562376158 
0.00064175835811 0.00063793080034 0.00063414063574 0.00063038493736 0.00062666164183 0.00062297521562 0.00061932078544 0.00061569950353 0.00061211153534 
0.00060855496598 0.00060502930962 0.00060153346471 0.00059806941178 0.00059463596143 0.00059123268099 0.00058786123355 0.00058452096906 0.000581211931 
0.00057793437763 0.00057468854309 0.00057147383317 0.00056829043321 0.00056513814073 0.00056201592087 0.00055892337318 0.00055585994877 0.00055282675692 
0.00054982094125 0.00054684252081 0.00054389064356 0.00054096410612 0.00053806280747 0.00053518511007 0.00053233510555 0.00052950294026 0.00052669303679 
0.00052390497285 0.00052113863107 0.00051839401903 0.00051567105189 0.00051297117496 0.00051029430903 0.00050764088955 0.00050501093146 0.0005024045507 
0.00049982229287 0.00049726312956 0.0004947270827 0.00049221424311 0.00064772668354 0.00064384315542 0.00063999862931 0.00063619125124 0.00063241904285 
0.00062868265918 0.00062497895415 0.00062131070858 0.00061767576819 0.00061407391549 0.0006105043643 0.00060696629339 0.00060345964965 0.00059998407902 
0.00059653900819 0.0005931247681 0.00058974247444 0.00058639201763 0.00058307246131 0.00057978461717 0.00057652752932 0.00057330286876 0.00057010926164 
0.00056694597942 0.00056381285996 0.00056070932206 0.00055763424617 0.0005545883863 0.00055157075121 0.00054857948795 0.00054561366633 0.00054267333786 
0.00053975762725 0.00053686549448 0.00053399560919 0.00053115285057 0.00052832725634 0.00052552309333 0.00052274021704 0.00051997897367 0.00051723941741 
0.00051452263871 0.00051182906541 0.00050915810682 0.00050651103146 0.00050388819043 0.00050128872727 0.00049871319564 0.00049616143408 0.00049363204347 
0.00065003149765 0.0006461294716 0.00064226320447 0.00063843691745 0.00063464736589 0.00063089413892 0.00062717704497 0.00062349135443 0.00061984146027 
0.00061622612437 0.00061264378436 0.00060909368413 0.00060557463097 0.00060208733525 0.00059863128858 0.00059520595471 0.00059181246657 0.00058845083697 
0.00058512080661 0.0005818223935 0.00057855407845 0.00057531823962 0.00057211357554 0.00056893874659 0.00056579362571 0.00056267810615 0.00055959078335 
0.00055653115978 0.00055349990836 0.0005504945926 0.0005475145844 0.00054455907051 0.00054162778315 0.00053871952514 0.00053583330788 0.00053296899427 
0.000530131161 0.00052730972754 0.0005245094227 0.00052173101144 0.00051897392211 0.00051623932017 0.00051352755258 0.00051083907897 0.00050817459321 
0.0005055338095 0.00050291772471 0.00050032547328 0.00049775699049 0.00049521196667 0.00065253803194 0.00064861429747 0.0006447273474 0.00064088050492 
0.00063707253579 0.00063330142436 0.00062956649887 0.00062586675673 0.00062219949998 0.00061856934252 0.00061497293211 0.00061140993506 0.00060787876748 
0.00060437922664 0.00060091160032 0.00059747587807 0.00059407129446 0.00059069875379 0.00058735745294 0.00058404740851 0.00058076835145 0.00057752058889 
0.00057430319086 0.00057111632019 0.00056795875019 0.00056482990992 0.00056172906518 0.00055865534054 0.00055560804439 0.00055258724288 0.00054959124629 
0.00054661972011 0.00054367098937 0.00054074573274 0.00053784208425 0.00053496004591 0.00053210424195 0.00052926461362 0.00052644624157 0.00052364949249 
0.00052087392257 0.00051812089217 0.00051539072254 0.00051268381527 0.00051000121961 0.00050734299536 0.00050470919576 0.00050209981376 0.0004995146063 
0.00049695344974 0.00065524750052 0.00065130073825 0.000647391618 0.00064352384581 0.00063969468494 0.00063590410612 0.00063215038964 0.00062843355611 
0.00062474984533 0.00062110429245 0.00061749341565 0.00061391652746 0.0006103722398 0.00060686061633 0.00060338132647 0.00059993426244 0.00059651894551 
0.00059313493332 0.00058978149718 0.00058646085414 0.00058316977677 0.00057990983023 0.00057667952013 0.00057347903349 0.00057030727824 0.00056716369016 
0.00056404737774 0.00056095794125 0.00055789498864 0.00055485633521 0.00055184302198 0.00054885326993 0.00054588662204 0.00054294274494 0.00054002075934 
0.00053711941734 0.00053424016245 0.00053138628866 0.00052854877739 0.00052573271394 0.00052293821936 0.00052016598973 0.00051741722557 0.00051469162832 
0.00051199071555 0.00050931438902 0.00050666274186 0.00050403617583 0.00050143434317 0.00049885631441 0.00065816186483 0.00065419027316 0.00065025806587 
0.00064636693804 0.00064251616672 0.00063870444426 0.0006349308632 0.00063119477936 0.00062749584903 0.00062383145743 0.00062020219566 0.00061661084678 
0.00061305335815 0.00060952943381 0.00060603754545 0.0006025794525 0.00059915257457 0.00059575697968 0.00059239208104 0.00058905859392 0.00058575473255 
0.0005824816946 0.00057923753238 0.00057602210133 0.00057283495628 0.00056967580442 0.00056654319475 0.00056343627059 0.00056035530659 0.00055729812873 
0.00055426498567 0.00055125567853 0.00054827003266 0.00054530598007 0.00054236379023 0.00053944354078 0.00053654355197 0.00053366524404 0.00053081236205 
0.0005279764535 0.00052516238937 0.0005223710121 0.00051960283835 0.0005168584795 0.00051413920061 0.00051144775997 0.00050877874 0.0005061351485 
0.0005035164608 0.00050092176035 0.0006612833125 0.00065728155293 0.00065332384917 0.0006494087971 0.00064553399086 0.00064170055015 0.00063790491936 
0.00063414879871 0.00063043060108 0.00062675100772 0.00062310607533 0.00061949987644 0.00061592834428 0.00061239079097 0.0006088867882 0.00060541600288 
0.00060197714269 0.00059856987467 0.00059519343117 0.00059184663 0.00058852915148 0.00058524170454 0.00058198282183 0.00057875148839 0.00057554799437 
0.00057237163674 0.00056922009204 0.00056609348309 0.00056299264741 0.00055991556892 0.000556861482 0.00055383144259 0.00055082438818 0.00054783895194 
0.0005448755493 0.0005419343153 0.0005390136936 0.00053611454415 0.0005332410836 0.00053038455812 0.0005275509126 0.00052473993575 0.00052195275329 
0.00051918968028 0.0005164518022 0.00051373952224 0.00051105277872 0.00050839201253 0.00050575606343 0.00050314539926 0.00066460970717 0.0006605799886 
0.00065659493119 0.00065265434065 0.00064875479097 0.00064489710918 0.00064107857871 0.00063730111015 0.00063356275073 0.00062986412972 0.0006262037185 
0.00062257841096 0.00061899235276 0.00061544067252 0.00061192339592 0.00060844021935 0.00060498904825 0.00060156925033 0.00059817999206 0.00059482031245 
0.0005914880745 0.00058818531809 0.00058490996485 0.00058166201852 0.0005784401344 0.00057524371152 0.00057207215827 0.00056892480347 0.00056580202474 
0.00056270286615 0.00055962683743 0.00055657332023 0.00055354342755 0.00055053559369 0.00054754954001 0.0005445865546 0.00054164431962 0.00053872417551 
0.0005358251095 0.00053295260604 0.00053009886361 0.00052726795091 0.00052446083682 0.00052167896381 0.00051892318868 0.00051619330274 0.00051348955273 
0.00051081193498 0.00050815993572 0.00050553314359 0.00066814040846 0.00066408107406 0.00066006761902 0.00065609940465 0.00065217446123 0.00064829123758 
0.00064444790345 0.00064064654333 0.00063688604239 0.00063316651528 0.00062948722096 0.00062584480473 0.00062224248539 0.00061867586875 0.00061514512199 
0.00061164862644 0.00060818514474 0.00060475156615 0.00060134897387 0.00059797494728 0.0005946279199 0.00059130784547 0.00058801568241 0.00058474872461 
0.00058150683936 0.00057828869515 0.00057509559289 0.00057192528052 0.00056877889981 0.00056565511585 0.00056255480437 0.00055947801957 0.00055642310788 
0.00055339109813 0.00055038220601 0.00054739593773 0.00054443148946 0.0005414890052 0.00053856899817 0.00053567015766 0.00053280065122 0.00052995044139 
0.00052712458588 0.00052432417594 0.00052155041484 0.00051880297817 0.00051608246847 0.00051338851194 0.00051072091603 0.00050807878191 0.00067187054455 
0.00066778494976 0.0006637381539 0.0006597408666 0.00065578745763 0.0006518767074 0.00064800754466 0.0006441807417 0.00064039642783 0.00063665477278 
0.00063295500786 0.00062929611426 0.00062567394447 0.00062209170266 0.00061854636071 0.00061503592216 0.00061155792712 0.0006081111734 0.00060469385063 
0.00060130429411 0.00059794071565 0.00059460403393 0.00059129252617 0.00058800493817 0.00058474068774 0.00058150000883 0.00057828274989 0.00057508796841 
0.00057191573089 0.00056876623113 0.00056564024899 0.00056253725426 0.00055945745027 0.00055640011145 0.00055336687483 0.0005503561335 0.0005473678529 
0.00054440266814 0.00054146094027 0.00053854179246 0.0005356519055 0.00053278191543 0.0005299372201 0.00052711859242 0.00052432706122 0.0005215626758 