# vtk DataFile Version 5.1
vtk output
ASCII
DATASET STRUCTURED_POINTS
DIMENSIONS 20 20 20
SPACING 0.005 0.005 0.005
ORIGIN 0.2189 -0.051172 0.02882
POINT_DATA 8000
FIELD FieldData 1
potential 1 8000 double
0.00046373482186 0.00045864917645 0.00045365716381 0.00044876170404 0.00044396833487 0.00043927166703 0.00043466002168 0.00043012106728 0.00042565028994 
0.0004212534106 0.00041694250955 0.00041272744258 0.00040861292107 0.00040459712312 0.00040067606629 0.00039684588691 0.00039309344037 0.00038941542571 
0.00038580930017 0.00038226651097 0.00046294158422 0.00045786850355 0.00045288386661 0.00044799378085 0.00044320500293 0.00043851509862 0.00043391401435 
0.00042938890527 0.00042493593726 0.0004205584079 0.0004162666163 0.00041207116286 0.00040797787438 0.00040398585374 0.00040008888765 0.00039627785071 
0.00039254716953 0.00038888280717 0.00038528447711 0.00038174762567 0.00046093809274 0.00045590139349 0.00045094729926 0.0004460831637 0.00044131732583 
0.00043665015516 0.00043207350366 0.00042757686193 0.00042315423512 0.00041880721177 0.00041454478499 0.00041037718798 0.00040631064424 0.00040234542695 
0.00039847664251 0.00039469173106 0.00039098086868 0.00038733003901 0.00038373950026 0.00038020923004 0.00045763069954 0.00045265449247 0.00044775702598 
0.00044294329162 0.00043822291666 0.0004335974911 0.00042906152658 0.00042460612668 0.00042022576219 0.00041592019871 0.00041169535061 0.00040756358274 
0.00040353133917 0.00039959848952 0.00039575957311 0.00039200163869 0.00038831263554 0.00038467918528 0.00038110166576 0.00037758323753 0.00045327809656 
0.00044838209126 0.00044356164214 0.00043882251162 0.00043416745676 0.00042960034734 0.00042511835019 0.00042071518225 0.00041638407001 0.0004121269036 
0.00040794918361 0.00040385939952 0.00039986573473 0.00039596730272 0.00039215848652 0.00038842715626 0.00038476032578 0.00038115250471 0.00037759638285 
0.00037409979494 0.00044836631436 0.00044356281282 0.00043883266061 0.00043417958724 0.0004296034567 0.00042510451013 0.00042068471212 0.00041633896525 
0.00041206338305 0.00040785938478 0.00040373198851 0.00039968867842 0.00039573561198 0.00039187165097 0.00038809220134 0.00038438704901 0.0003807462721 
0.00037716575459 0.00037363880822 0.00037017287029 0.00044341290209 0.0004386974892 0.00043405617469 0.00042949000533 0.00042499421499 0.00042056965362 
0.0004162151123 0.00041192895198 0.00040771025567 0.00040356133675 0.00039948660839 0.00039549136125 0.0003915791383 0.00038774954043 0.00038399882681 
0.00038031940445 0.0003767061735 0.0003731557813 0.00036966249073 0.0003662307513 0.00043880435943 0.0004341613087 0.00042959779244 0.00042510872209 
0.00042068664509 0.0004163311434 0.0004120414084 0.00040781613505 0.00040365580411 0.00039956205813 0.00039553979781 0.00039159230716 0.00038772101875 
0.0003839258833 0.00038020410513 0.00037655262473 0.00037296740198 0.00036944775916 0.00036598821047 0.00036259184095 0.00043475574186 0.00043016611388 
0.0004256595863 0.00042122964618 0.00041687200404 0.00041257945912 0.00040835127267 0.00040418552638 0.00040008246697 0.00039604359699 0.00039207190743 
0.00038817047091 0.00038433938711 0.00038057939587 0.00037688871522 0.00037326646275 0.00036971033523 0.00036621822654 0.00036279272925 0.00035942797201 
0.00043134939741 0.00042679250151 0.00042232451388 0.00041793908271 0.00041363093896 0.00040939341223 0.00040522206471 0.00040111310575 0.00039706531579 
0.00039307915609 0.00038915605595 0.00038529815802 0.00038150728292 0.0003777829223 0.00037412525346 0.00037053340491 0.00036700537243 0.00036354258991 
0.00036014533579 0.00035680844171 0.0004285994389 0.00042405932758 0.00041961441338 0.00041525817942 0.00041098884357 0.00040679664644 0.00040267608464 
0.0003986194692 0.00039462374514 0.00039068599605 0.00038680931107 0.00038299457191 0.00037924290185 0.00037555457169 0.00037192930266 0.00036836820069 
0.00036486929948 0.00036143380398 0.00035806274719 0.0003547505019 0.00042649605373 0.00042196015244 0.00041752559099 0.00041318889438 0.00040894904357 
0.00040479487791 0.00040071834946 0.00039670845486 0.00039275900643 0.00038886696015 0.0003850340973 0.0003812602382 0.00037754762621 0.00037389564024 
0.00037030427287 0.00036677313356 0.00036330248698 0.00035989200994 0.00035654429448 0.00035325392092 0.00042502725267 0.00042048805281 0.0004160555508 
0.00041173002599 0.00040751131372 0.00040338753199 0.000399347887 0.00039537864384 0.00039147113171 0.00038762008515 0.0003838278748 0.00038009425076 
0.00037642060714 0.00037280546006 0.00036924778752 0.00036574712399 0.00036230254189 0.00035891552347 0.00035558705482 0.00035231769442 0.00042417550792 
0.00041962856884 0.00041519274128 0.00041087106758 0.00040666593662 0.00040256485845 0.00039855527672 0.0003946205284 0.00039074858342 0.00038693514486 
0.00038318067819 0.00037948632894 0.00037585226551 0.0003722755996 0.00036875375961 0.00036528284803 0.00036186476349 0.00035849910761 0.00035518787487 
0.0003519340692 0.00042389042187 0.00041933157915 0.00041488680604 0.00041056405508 0.00040636430035 0.0004022820783 0.00039829631001 0.00039438975061 
0.00039054870177 0.00038676847746 0.00038304980092 0.00037939439985 0.00037580130981 0.0003722657449 0.00036878068754 0.00036534240319 0.00036194863621 
0.00035860199181 0.00035530504922 0.00035206329999 0.00042403464822 0.00041946212205 0.00041500555822 0.00041067742236 0.00040648107655 0.00040241154328 
0.0003984450845 0.0003945625459 0.00039074907074 0.00038699934412 0.00038331527208 0.00037969879678 0.00037614662892 0.00037265286837 0.0003692071852 
0.00036580135889 0.00036243298824 0.00035910426534 0.00035581901087 0.00035258559622 0.00042432896088 0.00041974431228 0.00041527779437 0.00041094510359 
0.00040675238334 0.00040269447441 0.00039874643485 0.00039488737917 0.0003911024202 0.00038738406299 0.00038373465551 0.00038015527014 0.00037664330648 
0.00037318967275 0.00036978239794 0.00036641010612 0.00036306702005 0.00035975490125 0.00035648150497 0.00035325356561 0.00042434297354 0.00041975661207 
0.00041528846073 0.00041095854176 0.00040677507612 0.00040273315072 0.00039880749039 0.00039497737805 0.00039122419748 0.00038754132314 0.00038392841602 
0.00038038608128 0.00037691109498 0.00037349370579 0.00037012086379 0.00036677906888 0.00036346216653 0.00036017049628 0.00035691202361 0.00035369466463 
0.00042359132018 0.00041901862274 0.00041456486835 0.00041025123503 0.00040608794848 0.00040207044689 0.00039817689384 0.00039438416081 0.00039067238291 
0.00038703132914 0.00038345827725 0.00037995272169 0.00037651135527 0.00037312466679 0.00036978106335 0.00036646800106 0.0003631787192 0.00035991243056 
0.00035667562876 0.00035347603147 0.00042170533325 0.0004171665062 0.00041274607531 0.0004084667375 0.00040433925537 0.0004003607436 0.00039651038783 
0.00039276545387 0.00038910333787 0.00038550979326 0.00038197862643 0.00037850968966 0.00037509962456 0.00037174066965 0.00036842384228 0.00036513903436 
0.00036188033747 0.00035864578439 0.00035543902535 0.00035226581496 0.00053008732298 0.00052433360576 0.00051868843437 0.00051314761876 0.0005077127486 
0.00050238042518 0.00049714467455 0.00049199917524 0.0004869420021 0.00048197485445 0.00047710167652 0.00047232753163 0.0004676545153 0.00046308160865 
0.00045860578453 0.00045422578628 0.00044992988102 0.00044571685999 0.00044158240618 0.00043752080443 0.00052831698614 0.00052259144985 0.00051697179067 
0.00051145481491 0.0005060430468 0.00050073414512 0.00049552310315 0.00049040353141 0.00048537353227 0.00048043377305 0.00047558848792 0.00047084212019 
0.00046619742821 0.00046165345384 0.00045720488223 0.0004528494221 0.00044858188301 0.00044439119229 0.00044027618579 0.00043623359535 0.00052579646595 
0.00052011344305 0.00051453313492 0.00050905273481 0.00050367548787 0.00049840024648 0.00049322324265 0.00048813864857 0.00048314318998 0.0004782379327 
0.00047342680355 0.00046871387802 0.00046410089027 0.00045958795931 0.00045517137776 0.00045084464233 0.00044660291 0.00044243495181 0.00043834034601 
0.00043431738596 0.00052247465423 0.00051684841682 0.00051132250968 0.00050589326521 0.00050056414508 0.00049533442047 0.00049020132984 0.00048515966168 
0.00048020706079 0.00047534416527 0.00047057230115 0.00046589733469 0.00046132152033 0.0004568431407 0.00045245958824 0.00044816334043 0.00044394857078 
0.000439805744 0.00043573422256 0.00043173363286 0.00051848698219 0.00051292989645 0.00050746934106 0.00050210567979 0.00049683584176 0.00049166221609 
0.0004865818518 0.00048159076636 0.00047668733777 0.00047187185273 0.00046714614077 0.00046251382267 0.00045797763533 0.00045353601043 0.00044918614362 
0.00044492114452 0.00044073595164 0.00043662156865 0.00043257716108 0.00042860369713 0.0005141040871 0.00050862217418 0.00050323533088 0.00049794327011 
0.00049274166137 0.00048763001995 0.00048260801703 0.00047767337584 0.00047282358442 0.00046805920041 0.00046338230449 0.00045879561884 0.00045430123396 
0.00044989749981 0.00044558248987 0.00044134970151 0.00043719341616 0.00043311185756 0.00042909789541 0.00042515559586 0.00050963207533 0.00050422353533 
0.00049891089902 0.00049369159169 0.00048855968379 0.00048351464712 0.00047855487405 0.00047367857155 0.00046888390119 0.00046417300173 0.00045954675359 
0.00045500673919 0.00045055495208 0.00044619045463 0.00044191025186 0.00043771048467 0.0004335861027 0.00042953709496 0.00042555656967 0.00042164721249 
0.00050533403981 0.00049999247179 0.00049474769761 0.00048959655967 0.00048453083675 0.00047955001845 0.00047465150149 0.00046983411897 0.00046509631697 
0.00046043895508 0.00045586370654 0.00045137199287 0.00044696311854 0.00044263767586 0.00043839284433 0.00043422669199 0.00043013549557 0.00042611932093 
0.00042217288423 0.00041829770174 0.00050138999604 0.00049610382583 0.00049091603442 0.00048582377021 0.00048081828043 0.00047589746337 0.00047105802224 
0.00046629828338 0.00046161658359 0.00045701285207 0.00045248806342 0.00044804300384 0.00044367738911 0.0004393910116 0.00043518275662 0.00043105104504 
0.00042699302219 0.00042300734241 0.00041909622076 0.00041525324453 0.00049789844507 0.00049265508935 0.00048751330541 0.00048246823603 0.000477515933 
0.00047264904903 0.00046786532262 0.00046316115204 0.00045853358444 0.00045398210609 0.00044950653055 0.00044510764416 0.00044078420615 0.00043653786666 
0.00043236591805 0.00042826859524 0.00042424434161 0.00042029077907 0.00041641081592 0.00041259829164 0.00049490329867 0.00048969187969 0.00048458592133 
0.00047957953313 0.00047467117804 0.00046985243482 0.00046511878307 0.00046046547592 0.00045588921583 0.00045138699412 0.00044695946528 0.00044260543476 
0.00043832489034 0.0004341173571 0.00042998302537 0.00042592077427 0.00042192878387 0.0004180069622 0.00041415701044 0.00041037249433 0.0004924138418 
0.00048722515893 0.00048214558982 0.00047717045301 0.00047229891543 0.00046752181696 0.00046283378665 0.0004582275497 0.00045369861273 0.00044924318764 
0.00044486167664 0.00044055129481 0.00043631277628 0.00043214543893 0.0004280483942 0.00042402004866 0.00042006062574 0.00041616838131 0.00041234624634 
0.00040858838127 0.00049041733406 0.00048524524551 0.0004801849331 0.00047523466515 0.00047039399822 0.00046565257111 0.00046100483681 0.00045644185959 
0.00045195729101 0.0004475457064 0.00044320747051 0.00043893967786 0.00043474308552 0.00043061573982 0.00042655565915 0.00042256189084 0.00041863353915 
0.00041476976078 0.00041097219017 0.00040724046266 0.00048887888814 0.00048371897664 0.00047867368542 0.00047374280349 0.00046892740046 0.00046421692623 
0.00045960453423 0.00045507991467 0.00045063607759 0.0004462661117 0.00044196945598 0.00043774365164 0.00043358860761 0.00042950149215 0.00042547922064 
0.00042151955804 0.00041762241789 0.00041378599909 0.000410011902 0.00040630254896 0.00048772446846 0.00048257476434 0.00047754138433 0.00047262726482 
0.00046783053504 0.00046314910238 0.00045856829565 0.00045407922737 0.0004496721984 0.00044534136305 0.00044108498466 0.00043690101222 0.00043278783278 
0.00042874123242 0.00042475717086 0.00042083213606 0.00041696468077 0.00041315446259 0.00040940313222 0.00040571345118 0.0004868215322 0.00048168166523 
0.00047665892753 0.00047175890552 0.00046698192384 0.0004623256898 0.0004577741801 0.00045331790858 0.00044894651175 0.00044465307625 0.00044043679729 
0.00043629403041 0.00043222222353 0.00042821626072 0.00042427077516 0.00042038020371 0.00041654283131 0.00041275855085 0.00040902862885 0.00040535727943 
0.00048595874712 0.00048083123759 0.00047582203166 0.0004709381941 0.00046618159106 0.00046155061863 0.00045702894982 0.00045260624713 0.00044827062424 
0.00044401557531 0.00043983850537 0.0004357362139 0.00043170515696 0.00042773910467 0.00042383187168 0.00041997636067 0.00041616933993 0.00041240994224 
0.00040870149437 0.00040504691178 0.00048486312692 0.00047975482797 0.00047476493199 0.00046990280216 0.00046517170791 0.00046056952029 0.00045608091913 
0.0004516940732 0.00044739721706 0.00044318239518 0.0004390454582 0.00043498358065 0.0004309920343 0.00042706442077 0.00042319368923 0.00041937194721 
0.00041559572882 0.00041186378473 0.00040817875202 0.00040454342943 0.00048325552005 0.00047817677012 0.00047321632334 0.00046838434135 0.00046368617929 
0.00045911870608 0.00045466905404 0.00045032369546 0.00044606989792 0.00044189796722 0.00043780298596 0.000433780882 0.0004298278919 0.00042593701164 
0.00042210094458 0.00041831286071 0.00041456851145 0.00041086649777 0.00040720873365 0.00040359762242 0.00048093369306 0.00047589728959 0.00047097893294 
0.00046618909433 0.0004615333938 0.00045700979913 0.00045260578781 0.00044830754785 0.0004441006192 0.0004399750838 0.00043592280267 0.00043194097252 
0.00042802521236 0.00042416964661 0.00042036757824 0.00041661348084 0.00041290301581 0.00040923446778 0.00040560794607 0.00040202608339 0.00059688108675 
0.00059044900228 0.00058413642726 0.00057794139993 0.0005718610043 0.00056589305535 0.00056003326233 0.00055427796925 0.00054862578385 0.00054307670621 
0.00053763119171 0.00053229134341 0.00052705710362 0.00052192765627 0.0005169003806 0.00051197467218 0.00050714045665 0.00050239760696 0.00049774091574 
0.0004931665669 0.00059437307599 0.00058797896489 0.00058170626095 0.00057554774388 0.00056950333703 0.00056357063381 0.00055774645552 0.00055202671461 
0.00054640992805 0.00054089578467 0.00053548562317 0.00053018003503 0.00052498038617 0.00051988526099 0.00051488975798 0.00050999644329 0.00050519370846 
0.00050047984147 0.00049585071067 0.00049130384525 0.00059139326406 0.00058504801932 0.00057882194692 0.00057270751575 0.00056670646036 0.00056081571344 
0.00055503289571 0.00054935416967 0.00054377817313 0.00053830343986 0.00053293220644 0.00052766545857 0.00052250215214 0.00051744292738 0.00051248328756 
0.00050762080011 0.00050285210358 0.00049816769119 0.00049356738389 0.00048904825518 0.00058791154891 0.00058162355404 0.00057545263702 0.00056939190517 
0.00056344211158 0.00055760098931 0.00055186605815 0.00054623400575 0.00054070330814 0.00053527380654 0.00052994512848 0.00052471980052 0.00051959714017 
0.00051457557861 0.00050965331859 0.0005048255181 0.00050008956379 0.00049543684691 0.00049086599484 0.00048637630955 0.00058400246635 0.00057777998758 
0.00057167015415 0.00056567226113 0.00055978037083 0.00055399500644 0.00054831409353 0.00054273354835 0.00053725333708 0.00053187272189 0.00052659138389 
0.00052141072842 0.00051633052805 0.00051134907481 0.00050646462137 0.00050167258446 0.00049697140949 0.00049235116978 0.00048781274975 0.00048335486262 
0.00057982314835 0.00057366901338 0.00056762673007 0.00056169454681 0.00055586567036 0.00055014107785 0.00054451738205 0.0005389938047 0.00053356703932 
0.0005282380307 0.00052300634257 0.0005178725896 0.00051283647909 0.00050789660147 0.00050305114555 0.00049829625736 0.0004936278215 0.00048904455096 
0.00048454043731 0.00048011645362 0.00057556113259 0.00056947466806 0.0005635003631 0.00055763537795 0.0005518721174 0.00054621061112 0.00054064745801 
0.00053518149766 0.00052981027677 0.00052453467355 0.00051935407929 0.00051426864624 0.0005092770818 0.00050438003603 0.00049957405496 0.00049485714306 
0.00049022505863 0.00048567732916 0.00048120884952 0.00047682008448 0.00057139308159 0.00056537185741 0.00055946229456 0.00055366144372 0.00054796187233 
0.00054236225306 0.00053685917351 0.00053145172992 0.00052613704199 0.00052091530468 0.00051578650179 0.00051075001403 0.00050580468845 0.00050095024597 
0.00049618478109 0.00049150603806 0.00048691092013 0.0004823999525 0.0004779670068 0.00047361351448 0.00056745645981 0.00056149342346 0.00055564222073 
0.00054990066447 0.00054426089666 0.00053872037068 0.00053327650424 0.00052792627412 0.00052266813725 0.00051750001142 0.00051242254288 0.0005074347524 
0.00050253509965 0.00049772396627 0.0004929992813 0.00048835916308 0.00048380139009 0.00047932412201 0.00047492926296 0.00047061017459 0.00056383951695 
0.00055792653074 0.00055212705579 0.00054643697701 0.00054085275297 0.00053536798059 0.00052997985815 0.00052468517371 0.00051948136723 0.00051436654783 
0.00050934054599 0.00050440035868 0.00049954646732 0.00049477873594 0.00049009469439 0.000485493284 0.00048097283743 0.00047653151551 0.00047217137819 
0.00046788567407 0.00056059056416 0.00055472051701 0.00054896636407 0.00054332184725 0.00053778740499 0.00053235361205 0.00052701745066 0.00052177549027 
0.00051662426447 0.00051156065549 0.00050658373596 0.0005016917449 0.00049688319238 0.00049215819306 0.00048751521565 0.00048295259657 0.00047846892823 
0.00047406301915 0.0004697364297 0.0004654828833 0.00055772569059 0.00055189220235 0.00054617613624 0.00054057296449 0.0005350820008 0.0005296945426 
0.00052440719808 0.00051921475078 0.00051411313723 0.00050909852275 0.00050417034537 0.00049932521391 0.00049456202568 0.00048988009858 0.00048527769089 
0.00048075351468 0.00047630610114 0.0004719340961 0.00046764008687 0.000463417674 0.00055523354792 0.00054943149142 0.00054374897501 0.00053818151567 
0.00053273020557 0.00052738507201 0.00052214288601 0.00051699715435 0.00051194311192 0.00050697561246 0.00050209412515 0.00049729442223 0.00049257628546 
0.00048793715297 0.00048337566197 0.00047888967365 0.00047447794239 0.00047013946244 0.00046587477607 0.00046168308106 0.00055307676939 0.0005473033931 
0.00054165014811 0.00053611566904 0.00053069966628 0.00052539372325 0.00052019290529 0.00051509096999 0.00051008207057 0.00050516028619 0.00050032427524 
0.00049556911618 0.0004908951338 0.00048629960421 0.00048177846967 0.00047733049681 0.0004729546345 0.0004686485392 0.00046441309384 0.00046024988953 
0.00055118463758 0.00054543835395 0.00053981338425 0.00053430955901 0.00052892607769 0.00052365642908 0.00051849506946 0.00051343474194 0.00050846874302 
0.00050359125598 0.00049879939621 0.00049408982877 0.00048945947745 0.00048490625855 0.00048042600432 0.00047601628448 0.00047167494132 0.00046740103611 
0.00046319451358 0.000459057745 0.00054944780553 0.00054372876871 0.00053813124248 0.0005326570128 0.00052730419831 0.00052207202616 0.00051694871281 
0.00051192870183 0.00050700474053 0.00050217049751 0.00049742270322 0.00049275746508 0.00048817137302 0.00048366037315 0.00047922095865 0.00047484851936 
0.00047054209977 0.00046629984379 0.00046212215694 0.00045801094755 0.00054771355602 0.00054202451619 0.00053645694517 0.0005310135763 0.00052569452416 
0.00052049850499 0.00051541414007 0.00051043571297 0.00050555386666 0.00050076290729 0.0004960588081 0.00049143745635 0.00048689441365 0.00048242585941 
0.00047802681448 0.00047369261053 0.00046942102199 0.0004652100887 0.00046106101063 0.00045697420746 0.00054580591238 0.00054015130262 0.00053461819668 
0.00052921025015 0.0005239284167 0.00051877146528 0.00051372838255 0.00050879201792 0.00050395419232 0.00049920747463 0.00049454788837 0.00048997029758 
0.00048547037622 0.00048104344907 0.00047668403452 0.00047238743743 0.00046815106072 0.00046397348404 0.00045985393937 0.00045579397287 0.00054355725878 
0.00053794429757 0.00053245234017 0.00052708532259 0.0005218455992 0.00051673161922 0.00051173299487 0.00050684262777 0.00050205129385 0.00049735092353 
0.00049273583142 0.00048820203284 0.00048374467281 0.00047935861468 0.00047503869019 0.00047078005313 0.00046657974678 0.00046243629363 0.0004583488815 
0.0004543184245 0.00054085050996 0.00053528745556 0.00052984477199 0.00052452653562 0.0005193353705 0.00051426967926 0.0005093203734 0.00050447937381 
0.00049973653329 0.00049508404747 0.00049051447028 0.00048602477236 0.00048160939377 0.00047726356108 0.00047298271777 0.00046876270262 0.00046459986164 
0.00046049258497 0.00045644011222 0.00045244218353 0.00066390726336 0.00065679083017 0.00064980786064 0.00064295398217 0.00063622640821 0.00062962231548 
0.00062313825561 0.0006167711179 0.00061051998146 0.00060438307112 0.00059836029555 0.00059245123905 0.00058665471753 0.00058096936637 0.00057539254664 
0.00056992506381 0.00056455634252 0.00055928674851 0.00055411204134 0.00054902861406 0.00066079917077 0.00065373038109 0.00064679641198 0.00063998894914 
0.00063330714815 0.00062674749446 0.00062030764955 0.00061398406299 0.00060777570864 0.0006016809527 0.0005956996735 0.00058983097002 0.00058407475321 
0.00057842875436 0.00057288911878 0.0005674585917 0.00056212668383 0.00055689232512 0.00055175148098 0.00054670160041 0.00065739417136 0.00065037983245 
0.00064349907537 0.00063674320906 0.0006301113973 0.00062360077918 0.00061720869581 0.00061093236544 0.00060477020598 0.0005987203471 0.00059278320883 
0.00058695799289 0.0005812429231 0.00057563794544 0.00057013839891 0.0005647436951 0.00055945106885 0.00055425205512 0.00054914565148 0.00054413032532 
0.00065367202949 0.00064671900543 0.00063989650972 0.00063319753093 0.00062662096075 0.00062016395824 0.00061382365952 0.00060759875619 0.00060148606551 
0.00059548419607 0.00058959426434 0.00058381445478 0.00057814404036 0.00057258066252 0.00056712315345 0.00056176767219 0.00055651279003 0.00055135052111 
0.00054627960539 0.00054129895696 0.0006496788218 0.00064279043419 0.00063603077002 0.00062939330951 0.00062287578426 0.00061647679303 0.00061019329363 
0.00060402187665 0.0005979621561 0.00059201258198 0.00058617224309 0.00058044028691 0.00057481556408 0.00056929609201 0.00056388053666 0.00055856486525 
0.00055334945551 0.00054822455819 0.00054319091832 0.00053824667007 0.00064550623403 0.00063868467607 0.0006319894392 0.00062541835285 0.0006189635725 
0.00061262545612 0.00060640031518 0.00060028704557 0.00059428248619 0.00058838659354 0.00058259750251 0.00057691489626 0.00057133764251 0.00056586329833 
0.00056049077204 0.00055521713756 0.00055003870241 0.00054495466683 0.00053995903123 0.00053505229759 0.00064127240315 0.0006345176388 0.00062788926565 
0.00062138376679 0.00061499405799 0.00060871842844 0.00060255443437 0.00059649970362 0.00059055190911 0.00058471096327 0.00057897508408 0.00057334312256 
0.00056781314667 0.00056238530718 0.00055705635997 0.00055182466279 0.00054668664918 0.0005416420072 0.00053668517203 0.00053181651578 0.00063709669668 
0.00063040792529 0.0006238443871 0.00061740303158 0.00061107636669 0.00060486334125 0.0005987603505 0.00059276480505 0.00058687431978 0.0005810890291 
0.0005754065434 0.00056982568517 0.00056434524998 0.00055896358438 0.0005536791306 0.00054848997475 0.00054339268526 0.00053838832696 0.00053347021805 
0.00052863961049 0.00063307892709 0.00062645185192 0.00061994972357 0.00061356954999 0.00060730408614 0.00060115121037 0.00059510779285 0.00058917131394 
0.0005833386963 0.00057760848223 0.00057197977381 0.00056645026764 0.00056101803766 0.00055568343083 0.00055044363628 0.00054529689161 0.00054024120435 
0.00053527431102 0.00053039735786 0.00052560404017 0.00062928972735 0.00062271934922 0.00061627354053 0.00060994915848 0.00060374308918 0.00059764850481 
0.00059166297799 0.00058578373308 0.00058000778097 0.00057433197312 0.00056875613098 0.00056327774635 0.00055789478635 0.00055260677709 0.00054741157727 
0.00054230771346 0.0005372932049 0.00053236594652 0.00052752725655 0.00052277096435 0.00062577192746 0.00061925328644 0.0006128606937 0.000606588628 
0.00060043683356 0.00059439679339 0.00058846621268 0.0005826426527 0.00057692111499 0.00057129948637 0.00056577590217 0.00056034776006 0.00055501358656 
0.00054977238656 0.00054462184159 0.00053956056293 0.00053458673788 0.00052969886229 0.00052489768253 0.00052017763153 0.00062254156907 0.00061607065448 
0.00060972580027 0.00060350300561 0.00059740154039 0.00059141339076 0.00058553598319 0.00057976481808 0.00057409634209 0.00056852691367 0.00056305473366 
0.00055767679963 0.00055239106673 0.0005471959245 0.00054208999916 0.00053707099706 0.00053213751364 0.00052728817535 0.00052252413358 0.00051783867108 
0.00061958992001 0.00061316247594 0.0006068622553 0.00060068498032 0.00059463112999 0.00058869195124 0.00058286457472 0.0005771447938 0.00057152755565 
0.00056600845244 0.00056058683816 0.00055525810106 0.00055002013526 0.00054487154471 0.00053980984025 0.0005348329152 0.00052993949898 0.0005251278614 
0.00052039802095 0.00051574889282 0.0006168839587 0.0006104980668 0.00060423981771 0.00059810581615 0.00059209667313 0.00058620386037 0.00058042429181 
0.00057475334481 0.00056918621976 0.00056371727378 0.00055834441737 0.00055306359275 0.00054787357212 0.0005427714851 0.00053775379855 0.00053281957847 
0.00052796548264 0.00052319105583 0.0005184958514 0.00051387988899 0.00061436472036 0.0006080194711 0.00060180195748 0.00059571051887 0.00058974399833 
0.00058389617659 0.00057816313523 0.00057253979041 0.00056702085326 0.00056160059368 0.00055627660594 0.00055104427421 0.00054590132685 0.00054084469152 
0.00053587131047 0.00053097846626 0.00052616407508 0.00052142698484 0.00051676605135 0.00051218221908 0.00061194828834 0.00060564397292 0.00059946741774 
0.00059341768388 0.00058749229668 0.00058169058768 0.00057600370486 0.00057042734613 0.0005649559756 0.00055958416597 0.00055430867334 0.00054912453184 
0.00054402853659 0.00053901713349 0.0005340874426 0.00052923603569 0.00052446128609 0.00051976072267 0.00051513405404 0.00051058254321 0.00060952679569 
0.00060326601772 0.00059713179167 0.00059112503401 0.00058524354971 0.0005794872526 0.00057384672446 0.0005683187308 0.00056289515818 0.00055757142035 
0.00055234338859 0.00054720724052 0.00054215773046 0.00053719210426 0.00053230618078 0.00052749645846 0.00052276086072 0.00051809698521 0.00051350495838 
0.00050898606145 0.0006069856745 0.00060077107054 0.00059468279263 0.00058872228589 0.00058288794305 0.00057717823109 0.00057158551688 0.00056610529624 
0.00056073085174 0.00055545599553 0.00055027668986 0.00054518754484 0.00054018508728 0.00053526477812 0.00053042214158 0.00052565419787 0.00052095837444 
0.000516332403 0.00051177516105 0.00050728696064 0.00060421934739 0.00059805607592 0.00059201827074 0.00058610667479 0.00058032233599 0.00057466270417 
0.00056912069219 0.00056369104309 0.00055836721414 0.00055314191296 0.0005480111443 0.00054296994135 0.00053801370793 0.00053313836335 0.00052833940136 
0.00052361339616 0.00051895780814 0.00051437046562 0.00050984972739 0.00050539618375 0.00060115663715 0.00059505071731 0.00058906863128 0.00058321214122 
0.00057748162289 0.00057187566382 0.00056638691116 0.00056100985593 0.00055573819151 0.00055056387352 0.00054548207357 0.00054048860025 0.00053557884581 
0.0005307479002 0.00052599255442 0.00052130914416 0.00051669464508 0.0005121471787 0.00050766516683 0.00050324797541 0.00073102237412 0.00072322121812 
0.00071556651444 0.00070805302516 0.00070067810893 0.00069343754327 0.00068632959871 0.00067935035034 0.00067249857645 0.00066577190891 0.00065916944551 
0.00065268952238 0.00064633047121 0.00064009037967 0.0006339664588 0.00062795916546 0.00062205878257 0.00061626615351 0.00061057677329 0.00060498717138 
0.00072739775566 0.00071965241869 0.00071205441677 0.00070459574612 0.00069727391627 0.00069008649058 0.00068302963559 0.00067610073948 0.00066929845661 
0.00066262046241 0.00065606503284 0.00064963183077 0.00064331832493 0.00063712246068 0.00063104081479 0.00062507560461 0.00061921740096 0.00061346451998 
0.00060781453382 0.00060226367188 0.00072358819498 0.00071590438409 0.00070836581806 0.0007009646995 0.00069369949833 0.00068656710248 0.00067956415943 
0.0006726882685 0.00066593723122 0.00065930984443 0.0006528042407 0.00064641879363 0.0006401513777 0.00063400137701 0.00062796476475 0.00062204005506 
0.00061622579068 0.00061051370633 0.00060490370076 0.00059939232554 0.0007195834655 0.00071196327733 0.0007044872608 0.00069714764079 0.00068994216375 
0.00068286757615 0.00067592108156 0.00066910065786 0.00066240434287 0.00065582871067 0.00064937431342 0.00064303882528 0.00063682033327 0.00063071639207 
0.00062472569157 0.00061884509461 0.00061307365313 0.00060740296421 0.00060183303267 0.00059636140833 0.00071540783085 0.00070785489955 0.00070044505265 
0.00069316770168 0.00068602465498 0.00067901139737 0.00067212477389 0.00066536188516 0.00065872104749 0.00065220094629 0.00064580007943 0.00063951598278 
0.00063334704158 0.00062729115083 0.00062134635599 0.00061551050007 0.00060978231701 0.00060415434425 0.00059862551924 0.00059319481701 0.00071111819619 
0.00070363438704 0.00069628978089 0.00068908168487 0.00068200243248 0.00067505187317 0.00066822694269 0.00066152368542 0.00065494126314 0.00064847754452 
0.00064213084028 0.00063589915502 0.00062978119145 0.00062377400841 0.00061787691451 0.00061208681259 0.00060639999566 0.00060081671167 0.00059533021529 
0.00058994079714 0.0007067922898 0.00069937663764 0.00069209991531 0.00068495853859 0.00067794580532 0.00067105942631 0.00066429695324 0.0006576549421 
0.00065113172007 0.00064472556629 0.0006384345767 0.00063225648446 0.00062618971333 0.000620232137 0.0006143827898 0.00060863853181 0.00060299611961 
0.00059745637743 0.00059201230121 0.0005866641767 0.00070250818184 0.00069516136832 0.00068795147642 0.00068087633314 0.00067392872846 0.00066710656802 