# vtk DataFile Version 5.1
vtk output
ASCII
DATASET STRUCTURED_POINTS
DIMENSIONS 20 20 20
SPACING 0.005 0.005 0.005
ORIGIN 0.2189 -0.051172 0.02882
POINT_DATA 8000
FIELD FieldData 1
potential 1 8000 double
0.00052229718876 0.0005160625509 0.00050987205046 0.00050372467932 0.00049763912904 0.000491634409 0.00048573138814 0.00047994950993 0.00047430836044 
0.00046882629042 0.0004635183134 0.00045838955197 0.00045343569999 0.00044864358991 0.00044399845334 0.00043948660628 0.00043509104134 0.00043078801294 
0.00042657674235 0.00042244298477 0.00052165735461 0.0005154399396 0.00050926372212 0.0005031322203 0.00049706479165 0.0004910818492 0.00048520322324 
0.00047944586433 0.00047382744244 0.00046836598867 0.00046307480922 0.00045796124204 0.00045302337876 0.00044824981979 0.00044362315636 0.00043912320753 
0.0004347431287 0.00043044517506 0.00042623166585 0.00042209348443 0.00051943460615 0.00051327045464 0.00050714222071 0.00050105487582 0.00049502887577 
0.00048908667141 0.00048324866866 0.0004775332245 0.00047195654296 0.00046653340439 0.00046127673656 0.00045619406485 0.00045128435443 0.00044653824271 
0.00044193984605 0.00043746523099 0.00043310222503 0.00042881312188 0.00042460111986 0.00042046243347 0.00051549993522 0.00050942546243 0.00050338263206 
0.0004973725494 0.00049141654433 0.00048553786257 0.00047975997188 0.00047410355862 0.00046858593349 0.00046321965317 0.00045801357889 0.00045297798205 
0.00044811207213 0.00044340602083 0.00043884350298 0.00043440757311 0.00043006159665 0.00042579064023 0.00042159050624 0.00041746285036 0.00051018306874 
0.00050422700043 0.0004982972549 0.00049239668363 0.00048653576396 0.000480740912 0.00047504018956 0.00046945861739 0.00046401240784 0.00045871658026 
0.00045357875962 0.00044860357713 0.00044379221414 0.00043913386802 0.0004346121666 0.00043021154393 0.00042589377704 0.00042165535416 0.00041748222369 
0.00041338132633 0.00050410784507 0.00049828706884 0.00049248727118 0.00048670951737 0.00048096047889 0.00047526285794 0.00046965196802 0.00046415539395 
0.00045879302642 0.00045357839451 0.00044851734474 0.00044361241195 0.00043886182235 0.00043425453556 0.00042977580419 0.00042541243203 0.00042113146164 
0.0004169302304 0.0004127960779 0.00040873563619 0.00049794171948 0.00049224603164 0.00048657161654 0.00048091568412 0.00047528001436 0.00046968951301 
0.00046417648389 0.0004587729004 0.00045350115693 0.0004483743776 0.00044339635254 0.00043856610341 0.00043387855839 0.00042932360358 0.00042488811445 
0.00042056347624 0.00041632219731 0.00041216310402 0.000408075146 0.0004040611946 0.00049217776448 0.00048658214998 0.00048101482769 0.00047546611328 
0.00046993592438 0.00046444920285 0.00045903888505 0.00045373566423 0.00044856223637 0.00044352608572 0.0004386328997 0.00043387792078 0.00042925362328 
0.0004247514874 0.00042036027098 0.00041607721667 0.00041187662052 0.0004077610862 0.0004037201222 0.00039975485753 0.00048708850104 0.00048156346291 
0.00047607332961 0.00047060739089 0.00046517335467 0.00045978714218 0.00045448098271 0.0004492817053 0.00044420764659 0.00043926558643 0.00043445592783 
0.00042977410022 0.00042521231638 0.00042076346847 0.00041642654955 0.00041217865614 0.0004080200438 0.00040394403886 0.00039995079385 0.0003960300128 
0.00048277886862 0.0004772934426 0.00047185490699 0.00046645448136 0.00046110062237 0.00045580970173 0.00045060661602 0.0004455115738 0.00044053733879 
0.00043568698799 0.00043095848675 0.00042634673686 0.00042184668522 0.00041745120862 0.00041316270328 0.00040895881708 0.00040484061833 0.00040080624263 
0.00039685321324 0.00039297235382 0.00047927433126 0.00047380405959 0.00046839679008 0.00046304494474 0.00045776176026 0.00045255809829 0.00044745368456 
0.0004424590042 0.00043758092599 0.00043281682888 0.00042816624173 0.00042362321456 0.0004191830076 0.00041484074831 0.00041059919616 0.00040643906455 
0.00040236197582 0.00039836610746 0.00039445030393 0.00039060491678 0.00047657770879 0.00047110483806 0.00046571323634 0.00046040027747 0.00045517931648 
0.00045005629057 0.0004450429553 0.00044014113606 0.00043535071233 0.00043066769277 0.00042609022042 0.00042161189034 0.00041723042756 0.00041294084951 
0.00040874709463 0.00040462871573 0.00040059051146 0.00039662924098 0.00039274591604 0.00038893136751 0.00047469823607 0.00046921196543 0.00046382606586 
0.00045854297617 0.00045337498071 0.00044832284663 0.00044339005705 0.00043857089721 0.00043385973736 0.00042924905357 0.00042473841539 0.00042032221536 
0.00041599777325 0.00041176816492 0.00040761236469 0.00040353464629 0.00039953096595 0.00039560058861 0.00039174272591 0.00038795614171 0.00047363783009 
0.00046813214743 0.00046274504166 0.00045748194 0.00045235575479 0.00044736210559 0.00044249761387 0.00043774930503 0.00043310536625 0.00042855925925 
0.00042410877289 0.00041975087669 0.00041548216563 0.00041130441395 0.00040719514621 0.00040315518996 0.00039918438754 0.00039528003152 0.00039144264597 
0.0003876744366 0.00047334910271 0.00046781888138 0.00046242215477 0.00045717029591 0.00045207138942 0.0004471273888 0.0004423182689 0.00043762802944 
0.00043304109695 0.00042855119537 0.00042415399223 0.00041985107487 0.0004156372149 0.00041151224014 0.00040744832029 0.00040344720103 0.0003995040151 
0.00039562009394 0.00039179691175 0.00038804017034 0.00047366154446 0.00046810523228 0.00046269421263 0.00045744514717 0.0004523669575 0.00044745895288 
0.00044269435748 0.0004380521262 0.00043351388062 0.00042907221781 0.00042472477879 0.00042047401852 0.00041632068736 0.00041223830722 0.00040822075202 
0.00040425604552 0.0004003394703 0.0003964721888 0.00039265753773 0.0003889050501 0.00047421336376 0.00046863423899 0.0004632106469 0.00045796291123 
0.00045290186083 0.00044802402445 0.00044329843503 0.00043869973314 0.00043420825039 0.00042981257749 0.00042551332165 0.00042131024166 0.00041720619525 
0.00041317096535 0.00040919686641 0.00040526826215 0.00040137653399 0.00039752266563 0.00039371506874 0.00038996152395 0.00047444207712 0.00046885566246 
0.00046343066163 0.00045819264567 0.0004531538529 0.00044830919674 0.00044362511693 0.00043907472025 0.000434632365 0.00043028744894 0.00042603704002 
0.00042188089585 0.00041782123774 0.00041382772825 0.00040989152061 0.00040599465537 0.00040212839565 0.00039829226759 0.00039449570609 0.0003907470274 
0.00047371274362 0.00046814188443 0.00046273796402 0.00045752778978 0.00045252498103 0.00044772403038 0.00044309356804 0.00043860208553 0.00043422136481 
0.00042993564975 0.0004257390358 0.00042163861923 0.00041761134895 0.00041365330738 0.00040974926643 0.00040588277269 0.00040204463398 0.00039823323 
0.00039445653007 0.00039072261531 0.00047154173492 0.00046601624153 0.00046066060406 0.0004555034648 0.00045055854776 0.00044582126393 0.00044126006747 
0.00043684247791 0.00043253554972 0.00042831800921 0.00042417946139 0.00042012786246 0.00041614055136 0.00041221611619 0.00040834302212 0.00040450822904 
0.00040070386437 0.00039692784998 0.00039318252456 0.00038947605012 0.00060978701022 0.00060241819611 0.00059514452427 0.00058795835906 0.0005808709164 
0.00057389488841 0.00056704490933 0.00056033498783 0.00055378008597 0.00054739172016 0.00054117703794 0.00053513932288 0.0005292750849 0.00052357549348 
0.00051802936786 0.00051262794834 0.00050735691015 0.0005021958096 0.00049714175221 0.00049218405039 0.00060774563721 0.00060042061916 0.00059318934242 
0.0005860453847 0.00057900053442 0.00057206753255 0.00056526073394 0.00055859276561 0.00055207817034 0.00054572721684 0.00053954794567 0.00053354348638 
0.00052771175665 0.0005220444547 0.00051652768426 0.00051115155645 0.00050591058036 0.0005007714817 0.00049573560017 0.00049079545204 0.00060472032975 
0.00059746031382 0.00059029126657 0.00058320700468 0.00057621961697 0.00056934254928 0.00056259068712 0.00055597694112 0.00054951319175 0.00054321086199 
0.00053707781317 0.0005311169703 0.00052532521863 0.0005196960358 0.0005142175854 0.00050887498905 0.00050366344953 0.00049854939181 0.00049353534941 
0.00048861541624 0.0006006384333 0.00059346454622 0.00058637902607 0.00057937414704 0.00057246195275 0.00056565582753 0.00055897167308 0.00055242294861 
0.00054602280276 0.00053978205815 0.00053370510605 0.000527797326 0.00052205626167 0.00051647324226 0.00051103782802 0.00050574154172 0.00050055664305 
0.00049547358396 0.00049048711178 0.0004855944085 0.00059566918962 0.00058860024415 0.00058161283331 0.00057470691503 0.0005678843026 0.00056116292109 
0.00055455851564 0.00054808629366 0.00054176026432 0.00053559062527 0.00052958210277 0.0005237369314 0.00051805317144 0.00051252239321 0.00050713413406 
0.00050188083926 0.00049673553479 0.00049169034105 0.00048673995718 0.00048188253937 0.0005901615962 0.00058320374179 0.00057632563512 0.0005695257119 
0.00056280439973 0.00055617611066 0.00054966028473 0.00054327442764 0.00053703112207 0.00053094044898 0.00052500688827 0.00051923109348 0.00051361018013 
0.00050813564454 0.0005027983611 0.00049759119222 0.00049248747902 0.00048748784462 0.00048257937038 0.00047776431778 0.0005845071101 0.00057765661223 
0.00057088694282 0.00056419382189 0.00055757588785 0.00055104798136 0.0005446280911 0.0005383340581 0.00053217853686 0.00052617279281 0.00052031907368 
0.00051461611786 0.0005090608961 0.00050364555059 0.00049836059584 0.00049320263562 0.00048814536492 0.00048319220306 0.0004783308004 0.00047356180334 
0.00057904339479 0.00057228907377 0.00056561776639 0.00055902478346 0.00055250637153 0.00054607781226 0.00053975558706 0.00053355735027 0.00052749578356 
0.00052157667188 0.00051580503622 0.00051017821778 0.000504689775 0.00049933468183 0.00049411117596 0.00048899576034 0.0004839872173 0.00047908165311 
0.00047426897598 0.0004695482823 0.00057400159817 0.00056732555871 0.00056073677584 0.00055423156367 0.00054780615424 0.00054147395581 0.00053524964165 
0.00052914862116 0.00052318101334 0.00051735187505 0.00051166258316 0.00050611044901 0.00050068993842 0.00049539500746 0.00049022689157 0.00048516293127 
0.000480203287 0.00047534257156 0.00047058055899 0.00046590621246 0.0005695106864 0.00056289380853 0.00055637204239 0.00054993934748 0.00054360018704 
0.00053735902588 0.0005312309031 0.0005252267074 0.00051935278493 0.00051361207905 0.00050800425741 0.00050252635699 0.00049717194668 0.00049193821959 
0.00048682489671 0.00048181207212 0.00047690192461 0.00047208805197 0.00046737134102 0.00046274123101 0.00056563368526 0.00055905955826 0.00055259086044 
0.00054622119359 0.00053995759705 0.00053380208844 0.00052776479898 0.00052185247943 0.00051606905596 0.00051041322316 0.00050488500292 0.00049947910229 
0.00049419129115 0.00048901669197 0.00048395930375 0.00047899794974 0.00047413490218 0.00046936692507 0.0004646936176 0.00046010428281 0.0005623944421 
0.0005558489252 0.00054942098479 0.00054310539729 0.00053690945468 0.00053083237772 0.00052488066565 0.00051905535406 0.000513356834 0.0005077817764 
0.00050232953865 0.00049699323167 0.0004917700501 0.00048666357517 0.00048165272464 0.00047674049638 0.00047192401844 0.00046719831862 0.00046256479557 
0.0004580136817 0.00055979004269 0.00055326476558 0.0005468681152 0.00054059871241 0.00053446304029 0.0005284564978 0.00052258272934 0.0005168381419 
0.00051121908243 0.00050571921063 0.00050033799099 0.00049506857446 0.00048990849447 0.00048486057103 0.00047990276547 0.00047503919536 0.00047026616407 
0.00046558006455 0.00046098084834 0.00045646609982 0.00055779073099 0.00055127947876 0.00054490838165 0.00053867743228 0.00053259376959 0.00052665017541 
0.00052084592092 0.0005151734415 0.00050962675354 0.00050419702989 0.00049888258297 0.00049367735151 0.00048857840943 0.00048358767702 0.00047868236241 
0.00047386537471 0.00046913444203 0.00046448496213 0.00045991700749 0.00045543199322 0.00055631231848 0.00054981247064 0.00054346201539 0.00053726477189 
0.00053122224533 0.00052533723467 0.00051959485435 0.00051398793395 0.00050850585456 0.00050314057953 0.00049788891314 0.00049274568536 0.00048770635549 
0.00048277167198 0.00047791758957 0.00047314616833 0.00046845354268 0.00046383741745 0.00045929814664 0.00045483786171 0.00055518913197 0.00054870062428 
0.00054236878571 0.00053620037847 0.0005301985101 0.00052436369623 0.00051867721621 0.00051312952621 0.00050770790599 0.00050240348849 0.00049721136093 
0.00049212739068 0.00048715372517 0.00048226488714 0.00047746101726 0.00047273336927 0.00046807809198 0.00046349343629 0.00045897950309 0.00045454060579 
0.00055414936747 0.00054767635508 0.00054136668332 0.00053522866293 0.00052926623129 0.00052347923039 0.00051784682695 0.00051235697296 0.00050699386103 
0.00050174876088 0.00049661421843 0.0004915871608 0.00048666861285 0.00048183202673 0.00047707684355 0.00047239264825 0.00046777396931 0.00046321842942 
0.00045872880373 0.00045430856092 0.0005528378074 0.00054639060079 0.00054011104657 0.00053401008134 0.00052809261273 0.00052235648255 0.00051678072358 
0.00051135001959 0.0005060480082 0.00050086286611 0.00049578708972 0.00049081629211 0.0004859506284 0.0004811639819 0.00047645480323 0.00047181201893 
0.00046723011764 0.00046270650578 0.00045824390011 0.0004538441425 0.00055088966949 0.00054448363389 0.0005382485101 0.00053219600788 0.0005263327673 
0.00052065487622 0.00051514280379 0.00050977819689 0.00050454255837 0.0004994214169 0.00049440620163 0.00048949941486 0.00048467725638 0.00047993867454 
0.00047527355431 0.00047067241817 0.00046612902407 0.00046164081689 0.00045720993041 0.0004528377548 0.00054803908112 0.0005416931984 0.000535520569 
0.00052953313039 0.00052373738173 0.00051812995788 0.00051269071881 0.00050739996364 0.00050223618695 0.00049718419035 0.00049223119463 0.00048738141534 
0.00048261054596 0.00047791914981 0.00047329818683 0.00046874009088 0.00046423871905 0.00045979213243 0.00045539812484 0.00045106078471 0.0006978950807 
0.00068938371682 0.00068100662026 0.00067276074425 0.00066464845367 0.00065667809194 0.00064885825413 0.00064119838983 0.00063370860068 0.00062639597559 
0.00061926363024 0.00061231312155 0.00060554060619 0.00059893983541 0.00059250195162 0.00058622041313 0.00058008383053 0.00057407383481 0.00056818656697 
0.00056241389231 0.00069476838928 0.00068631815853 0.00067800647637 0.00066982206278 0.0006617709722 0.00065386051967 0.00064609992977 0.00063849733704 
0.00063106245053 0.00062380185549 0.00061672003034 0.00060981681008 0.00060309062151 0.00059653470074 0.00059013745627 0.00058389660782 0.00057779910535 
0.00057182442777 0.00056597036195 0.00056023055052 0.00069102054882 0.00068264731192 0.00067441039293 0.00066629785394 0.00065831775536 0.00065047598488 
0.00064278222469 0.00063524524251 0.00062787242942 0.00062067095809 0.00061364596435 0.00060679793109 0.00060012226561 0.00059361518524 0.00058726574273 
0.00058107254857 0.0005750120712 0.00056907505034 0.00056325744892 0.00055755191739 0.00068660733857 0.00067832330418 0.00067017310554 0.00066214542754 
0.00065424683761 0.00064648385929 0.00063886580909 0.00063140125342 0.00062409893609 0.00061696600945 0.00061000462565 0.00060321737498 0.00059660017871 
0.00059014664081 0.00058384908056 0.00057770357672 0.00057168754953 0.00056579256359 0.00056001410606 0.00055434774658 0.00068161992705 0.00067343775175 
0.00066538202162 0.00065745184597 0.00064964355628 0.00064196773645 0.00063443404443 0.00062705003689 0.00061982603955 0.00061276838613 0.00060587905927 
0.00059915913173 0.00059260507266 0.00058621034224 0.00057996750849 0.00057387316842 0.00056790574669 0.00056205651718 0.00055632278894 0.00055069992984 
0.00067626114137 0.0006681829234 0.00066023042888 0.00065240104327 0.00064468999775 0.00063710853335 0.00062966454454 0.00062236962403 0.0006152297056 
0.00060825293261 0.00060144081928 0.00059479317917 0.00058830633057 0.00058197419959 0.00057578938391 0.00056974931355 0.00056383020356 0.0005580337282 
0.00055234865197 0.00054677343004 0.00067077006626 0.00066279415421 0.00065494465953 0.00064721771969 0.0006396076131 0.00063212436754 0.00062477580746 
0.00061757276386 0.00061052167402 0.00060363008749 0.00059689889472 0.00059032701026 0.00058390954315 0.00057764260879 0.00057151765855 0.00056553478152 
0.00055966944415 0.00055392491119 0.00054829130696 0.00054276652738 0.0006653741657 0.00065749559422 0.00064974386852 0.00064211509059 0.00063460388225 
0.00062721854298 0.00061996655373 0.00061285844519 0.00060590025 0.00059909531329 0.00059244735257 0.00058595317689 0.00057960788574 0.00057340722271 
0.0005673519355 0.00056141913232 0.00055560901546 0.00054991873543 0.00054433724958 0.00053886368268 0.00066025122325 0.00065245904844 0.00064479568265 
0.00063725855001 0.00062984180691 0.00062255207993 0.00061539725366 0.00060838420716 0.00060151901634 0.00059480310608 0.00058823855337 0.00058182242375 
0.00057554950814 0.00056941613364 0.00056342343281 0.00055754925117 0.00055179513795 0.00054615545917 0.00054062972558 0.00053520672273 0.00065551780352 
0.00064779945383 0.00064021490545 0.00063275872747 0.00062543233052 0.00061823516279 0.00061117440508 0.0006042555787 0.00059748221347 0.00059085492918 
0.00058437468243 0.00057803546865 0.00057183479004 0.00056576878174 0.00055983840528 0.00055402287635 0.00054832472412 0.00054273850077 0.00053726420382 
0.00053189057094 0.0006512414875 0.0006435860775 0.00063607113401 0.00062868905462 0.00062144563854 0.00061433578405 0.0006073652461 0.00060053761101 
0.0005938541173 0.00058731311592 0.00058091386173 0.00057465201436 0.0005685227349 0.00056252292743 0.00055665502195 0.00055089787936 0.00054525459264 
0.00053972083424 0.00053429612935 0.00052897003104 0.00064745143687 0.00063984878786 0.00063239364284 0.00062508003411 0.00061791182933 0.00061088371314 
0.00060399944451 0.00059725890764 0.00059066122396 0.00058420305256 0.00057788369804 0.00057169683031 0.00056563836831 0.00055971253385 0.00055389778497 
0.00054819788367 0.00054260813391 0.00053712424569 0.00053174729401 0.00052646682217 0.00064414129781 0.00063658442297 0.00062918272976 0.00062193011241 
0.00061483201036 0.00060788009865 0.00060107684398 0.0005944189268 0.00058790340423 0.00058152449275 0.00057528140412 0.00056916667118 0.00056317756751 
0.00055731640864 0.0005515623614 0.00054591841134 0.00054038054134 0.00053494515315 0.00052961082159 0.00052437462625 0.00064127270985 0.00063375754572 
0.00062640333242 0.00061920758961 0.00061217317916 0.00060529243884 0.00059856404222 0.00059198353918 0.00058554552082 0.00057924259718 0.00057307283524 
0.00056702780204 0.00056110573444 0.00055530901277 0.00054961375331 0.00054402446381 0.00053853765949 0.00053314818593 0.0005278552195 0.00052265917312 
0.00063876206686 0.0006312863038 0.00062397757842 0.00061683476249 0.00060985946208 0.00060304468651 0.00059638697939 0.00058987926851 0.00058351411164 
0.0005772836401 0.0005711838479 0.00056520845601 0.00055935147312 0.00055361649742 0.00054797949946 0.00054244390056 0.00053700509658 0.00053166002833 
0.0005264068906 0.00052124736457 0.0006364722687 0.00062903635229 0.00062177186383 0.00061467991061 0.00060775925968 0.00060101091718 0.00059442024385 
0.00058798186637 0.00058168668033 0.00057552683573 0.00056949453536 0.00056358577437 0.0005578017688 0.00055211860394 0.00054653873632 0.00054105460946 
0.00053566332664 0.00053036090633 0.00052514635961 0.0005200211198 0.00063420792879 0.00062681602598 0.00061959901313 0.00061255890944 0.00060569641923 
0.00059901079007 0.0005924867803 0.00058611781337 0.0005798913633 0.00057379982604 0.00056783418842 0.00056199046396 0.00055626854825 0.00055064514335 
0.00054512098007 0.0005396887131 0.00053434404952 0.00052908316765 0.00052390614849 0.00051881327827 0.00063174101469 0.00062439982577 0.00061723651305 
0.00061025401297 0.00060345352421 0.0005968334841 0.00059037809436 0.00058407806249 0.00057792174486 0.00057189893462 0.00056600044447 0.0005602210626 
0.00055456079637 0.00054899563257 0.00054352584862 0.00053814427701 0.0005328463617 0.00052762921671 0.00052249117369 0.00051743250017 0.00062885293788 
0.00062157315044 0.00061447301182 0.00060755556681 0.00060082307192 0.00059427337752 0.00058789028283 0.00058166385935 0.00057558051424 0.00056962813968 
0.00056379735668 0.00055809068795 0.0005524828763 0.00054697504158 0.00054155952362 0.00053622917962 0.00053097921595 0.00052580683177 0.00052071064364 
0.00051569009467 0.00062538966958 0.00061818355929 0.0006111581698 0.00060431654106 0.00059766094804 0.00059118856271 0.00058488409092 0.00057873562447 
0.00057272795846 0.00056684883437 0.00056108651828 0.00055544475984 0.00054989751355 0.00054444658485 0.00053908523463 0.00053380738965 0.00052860757186 
0.00052348378945 0.00051843266478 0.00051345445174 0.00078632676717 0.00077666771423 0.00076718236405 0.00075786407533 0.0007487131723 0.0007397330733 
0.00073092825319 0.00072230366066 0.00071386614496 0.00070561839951 0.00069756246361 0.00068969737223 0.00068201922398 0.00067452250446 0.00066719964589 
0.00066004693045 0.00065305311923 0.00064620094548 0.00063948815612 0.00063290699951 0.00078229820029 0.00077271733872 0.00076331299666 0.00075407214423 
0.00074499774597 0.00073609188721 0.00072735999412 0.0007188060532 0.00071043655253 0.00070225419732 0.00069426111256 0.00068645579555 0.00067883601938 
0.00067139528289 0.00066412461424 0.0006570229291 0.00065007934237 0.00064327467626 0.00063660721302 0.00063007056334 0.00077787659128 0.00076838377503 
0.00075906603376 0.00074990967581 0.00074091750163 0.00073209200056 0.00072343792694 0.00071496061744 0.00070666347916 0.00069855095887 0.00069062525885 
0.00068288507507 0.00067532602166 0.00066794469329 0.000660731238 0.00065368742318 0.00064679138278 0.00064003557363 0.00063341528152 0.00062692507053 
0.00077303036252 0.00076363638257 0.00075441228864 0.00074534764068 0.00073644469796 0.00072770582915 0.0007191351727 0.00071073933013 0.0007025210184 
0.00069448365243 0.00068663065217 0.00067895956985 0.00067146736661 0.00066414789215 0.00065699548852 0.00065000838489 0.00064316629523 0.00063646207561 
0.00062989159392 0.0006234501541 0.00076781844763 0.00075852665156 0.00074940237251 0.00074043568108 0.00073162713356 0.00072298099684 0.00071450097333 
0.00070619074218 0.00069805641655 0.00069010109265 0.00068232546002 0.00067472820184 0.00066730575922 0.00066005252011 0.00065296272778 0.00064603455657 
0.0006392496742 0.00063259998808 0.00062608292008 0.00061969324633 0.00076235593028 0.00075316878398 0.00074414589078 0.00073528394857 0.00072657498244 
0.00071802584577 0.00070963932287 0.00070142178006 0.00069337558936 0.00068550555522 0.00067781090105 0.00067029089384 0.00066294193572 0.00065575790081 
0.00064873340165 0.00064186793494 0.00063513894154 0.00062854912341 0.00062208755138 0.00061575214578 0.00075679410604 0.00074771112418 0.00073879272589 
0.00073003394767 0.00072142778725 0.00071297831889 0.00070468976419 0.0006965666852 0.00068861205795 0.00068083031644 0.00067322050198 0.00066578064401 
0.00065850618522 0.00065139381791 0.0006444363361 0.00063763506372 0.00063096699224 0.00062443599533 0.0006180318132 0.00061175235871 0.00075128712544 
0.00074230603284 0.00073348883919 0.00072483113743 0.0007163254181 0.00070797650803 0.00069978682356 0.00069176020126 0.00068389909854 0.00067620770714 
0.00066868405583 0.00066132585229 0.00065412929112 0.00064708945155 0.00064020849385 0.00063346482904 0.00062685864333 0.00062038821965 0.00061404199828 
0.00060781900648 0.00074596472765 0.00073707873351 0.00072835745197 0.00071979672464 0.00071138937691 0.00070313854466 0.0006950468512 0.00068711758795 
0.00067935256652 0.00067175080802 0.00066431432642 0.00065703867274 0.00064991917673 0.00064295316538 0.00063614163671 0.0006294633069 0.00062292047514 
0.00061650730175 0.00061022247293 0.00060405539563 0.00074092060177 0.00073212178636 0.00072348909107 0.0007150177201 0.00070670716615 0.00069855260677 
0.00069055741487 0.00068272392417 0.00067505261162 0.00066754148603 0.00066019164956 0.00065299849679 0.00064595733079 0.00063906461947 0.00063232243727 
0.00062571007692 0.00061923006717 0.00061287696476 0.00060664986356 0.00060053842336 0.00073621416167 0.00072749486093 0.00071894586058 0.00071055971214 
0.0007023390086 0.00069427626437 0.00068637430034 0.00067863484245 0.00067105511157 0.00066363403172 0.00065636991489 0.00064925798641 0.00064229427955 
0.00063547491904 0.00062880191783 0.00062225487475 0.00061583684157 0.00060954322135 0.0006033726509 0.00059731567943 0.00073187166283 0.00072322553908 
0.00071475263272 0.00070644737232 0.00069831134923 0.00069033702504 0.00068252594194 0.0006748762982 0.00066738630595 0.00066005229579 0.00065287227638 
0.00064584104938 0.00063895393868 0.00063221445156 0.00062560207355 0.00061911952875 0.00061276248769 0.00060652682181 0.00060041185855 0.00059440686088 
0.00072788876314 0.00071930895426 0.00071090756878 0.00070267803292 0.00069462281492 0.00068673273554 0.00067900803139 0.00067144629889 0.00066404294942 
0.00065679281551 0.00064969519866 0.00064274260919 0.00063593048987 0.00062926289482 0.00062271791654 0.0006162988535 0.00061000180301 0.00060382238008 
0.00059775858285 0.00059180715128 0.00072422785976 0.00071571192153 0.00070737823323 0.00069922081218 0.00069124211901 0.000683432254 0.00067579024495 
0.0006683121652 0.00066099299961 0.00065382556693 0.00064680705316 0.0006399306053 0.00063319278549 0.00062659598503 0.00062011731761 0.00061376179975 
0.00060752300346 0.00060139840748 0.00059538550719 0.00058948271846 0.00072081877488 0.00071236526821 0.00070409698337 0.00069601014452 0.00068810465081 
0.00068037226987 0.00067281017945 0.00066541298611 0.0006581744187 0.00065108661018 0.00064414620976 0.00063734557194 0.00063068836214 0.00062415202227 
0.00061773911801 0.00061144442581 0.00060526345767 0.00059919291827 0.00059322965461 0.00058737356075 0.00071755618451 0.0007091655472 0.00070096289099 
0.00069294516151 0.00068510936416 0.00067745548724 0.00066997170199 0.00066265344112 0.00065549343882 0.00064848385 0.00064162011513 0.00063489394873 
0.00062830794687 0.00062183899418 0.00061549031957 0.00060925588543 0.00060313187213 0.00059711364688 0.00059119921998 0.00058538920226 0.00071430269687 
0.00070597869377 0.00069784346013 0.00068989608664 0.00068213348725 0.0006745557583 0.00066714950541 0.00065991093269 0.0006528288654 0.00064589711383 
0.00063910663076 0.00063245388297 0.00062593773031 0.00061953632267 0.00061325130992 0.000607076801 0.00060100860411 0.00059504232209 0.00058917704002 
0.00058341286185 0.0007109104477 0.00070265712975 0.00069459424745 0.00068672140686 0.00067903565339 0.00067153512595 0.00066420762825 0.00065704713995 
0.00065004389016 0.00064318931706 0.00063647427292 0.00062989316828 0.00062344709133 0.00061711220857 0.00061088990368 0.00060477508764 0.00059876314932 
0.00059284998592 0.0005870334672 0.00058131222229 0.00070724217998 0.0006990671059 0.00069108295059 0.00068328822406 0.00067568303875 0.00066826376283 
0.00066101827499 0.00065393910034 0.00064701622963 0.00064023941213 0.00063359919788 0.00062709913542 0.00062071347525 0.00061444453005 0.00060828531899 
0.00060223030529 0.00059627512194 0.0005904159215 0.00058465025832 0.00057897696008 0.00070320366089 0.00069511627271 0.00068721831468 0.00067951006897 
0.00067199058636 0.00066465718087 0.00065749691571 0.00065050150475 0.00064366081767 0.00063696260961 0.00063039853014 0.00062397073578 0.00061765432072 
0.0006114506833 0.00060535459407 0.00059936032779 0.00059346313246 0.00058766044758 0.00058194772835 0.00057632469395 0.00087487548193 0.00086407081853 
0.00085347475441 0.00084307881442 0.00083288170623 0.00082288208834 0.0008130832172 0.00080348545378 0.00079409250012 0.00078490443846 0.00077592162138 
0.00076714159606 0.0007585603806 0.00075017278766 0.00074197181723 0.00073395402668 0.00072610986725 0.00071842317483 0.0007108916572 0.0007035078478 
0.00087005770649 0.00085934605289 0.00084884474908 0.00083854044886 0.00082843228643 0.0008185210158 0.00080880681374 0.000799291547 0.00078997856358 
0.0007808679217 0.00077195885761 0.00076325078681 0.00075473876417 0.00074641741216 0.00073827913009 0.0007303228573 0.00072253963483 0.00071490996621 
0.00070743443597 0.00070010525926 0.00086499175862 0.00085438245296 0.00084397925593 0.00083377032365 0.00082375589756 0.0008139355644 0.00080430995636 
0.00079488097003 0.000785650676 0.00077662058122 0.00076778971751 0.0007591557667 0.00075071445081 0.00074246230316 0.00073439115023 0.00072650224008 
0.00071877599442 0.00071120552354 0.00070378708444 0.00069651428584 0.00085966372239 0.00084915847297 0.00083885769156 0.00082874946355 0.0008188329155 
0.00080910739112 0.00079957398951 0.00079023577652 0.00078109269368 0.00077214545969 0.00076339547888 0.00075483949712 0.00074647357841 0.00073829214281 
0.00073029011663 0.00072246724632 0.00071480450111 0.00070729453106 0.00069993509391 0.00069271993264 0.00085410124459 0.00084370480229 0.00083351121693 
0.00082350479622 0.00081368988464 0.0008040640756 0.00079462789773 0.00078538248072 0.00077632968101 0.00076747115105 0.00075880605997 0.00075033102863 
0.00074204242415 0.00073393519257 0.00072600348376 0.00071824853643 0.00071065046761 0.00070320446057 0.00069590588433 0.00068875072758 0.00084837625248 
0.00083809069959 0.00082800264247 0.00081810758744 0.00080839627943 0.00079887236816 0.0007895363098 0.00078038772758 0.00077142932522 0.0007626615905 
0.00075408328065 0.0007456915368 0.00073748311848 0.00072945194114 0.00072159350011 0.00071390867944 0.00070637442494 0.0006989954838 0.00069176019041 
0.00068466630491 0.00084258842163 0.00083241213196 0.00082243305518 0.0008126455201 0.00080304150491 0.00079362175525 0.00078438741528 0.00077533852569 
0.00076647644309 0.00075780196854 0.00074931337093 0.00074100734871 0.00073288032344 0.00072492681949 0.0007171507421 0.00070952933073 0.00070206320432 
0.00069475049299 0.0006875792737 0.00068054743304 0.00083683872192 0.00082677171118 0.00081689971386 0.00080721890264 0.0007977205142 0.00078840541579 