# vtk DataFile Version 5.1
vtk output
ASCII
DATASET STRUCTURED_POINTS
DIMENSIONS 20 20 20
SPACING 0.005 0.005 0.005
ORIGIN 0.2189 -0.051172 0.02882
POINT_DATA 8000
FIELD FieldData 1
potential 1 8000 double
0.31080826839 0.31083719253 0.31084687968 0.31085315997 0.31085897882 0.31085378877 0.31081873833 0.31074113066 0.31062764909 
0.31050470588 0.3104038558 0.31034400905 0.31032845439 0.3103594851 0.31044534518 0.31060078772 0.31084151034 0.31117275054 
0.3115779934 0.31201342836 0.3550249438 0.35508388712 0.35512154742 0.35514770129 0.35516185754 0.35515098452 0.35509982502 
0.35500253935 0.35487378929 0.35474293732 0.35463726354 0.35456937437 0.35453942585 0.35454673513 0.35460436697 0.35473414726 
0.35495833769 0.35528505436 0.35569662576 0.35614774232 0.400538339 0.40063421969 0.40070640244 0.40075756683 0.400782019 
0.40076677181 0.4007030468 0.40059408582 0.40046191943 0.40033571087 0.40023651088 0.40016782175 0.40012431825 0.40010515307 
0.40012650554 0.40021773251 0.40040751181 0.4007073717 0.40109938937 0.40153793563 0.4451683717 0.44529392638 0.44539477376 
0.44546653038 0.44550014119 0.44548462041 0.4454169804 0.44530812592 0.44518548266 0.44507580089 0.44499151112 0.44492864342 
0.4448768166 0.44483714575 0.44482710681 0.4448800455 0.44502896985 0.44528761407 0.4456397325 0.44604127848 0.48672177423 
0.48685873708 0.48697213554 0.48705351147 0.4870926898 0.48708108455 0.48702018929 0.48692531873 0.48682358156 0.48673757273 
0.48667250023 0.48661931788 0.48656821532 0.48652091511 0.48649622204 0.48652518917 0.48663857541 0.48685020693 0.48714742223 
0.48749130964 0.52334930751 0.52347826531 0.52358664173 0.52366546802 0.52370610467 0.5237016254 0.52365655371 0.52358578896 
0.52351172677 0.52345110332 0.52340446376 0.52336362204 0.52332118225 0.52328169594 0.52326149351 0.52328401143 0.52337264827 
0.52353830756 0.52377217879 0.52404551618 0.55382997583 0.5539379148 0.55403053198 0.554098958 0.55413726595 0.55414175131 
0.55411617948 0.55407232109 0.55402590195 0.55398760474 0.55395685702 0.55392810131 0.55389909456 0.55387622106 0.55387130498 
0.55389889908 0.55397148939 0.55409597189 0.55426803461 0.55446987458 0.57763444351 0.57771815524 0.57779072784 0.57784691502 
0.57788222189 0.57789406037 0.57788624381 0.57786565998 0.57784163754 0.5778203933 0.57780174192 0.57778405973 0.57776854856 
0.57776233527 0.57777229506 0.57780530107 0.5778657828 0.57795667738 0.57807708299 0.57821799469 0.59475487242 0.59481672121 
0.59487162241 0.59491633331 0.5949484272 0.59496643928 0.59497107157 0.59496733119 0.59495858347 0.59494923815 0.59493950783 
0.59493009801 0.5949246797 0.59492908608 0.59494715982 0.59498041538 0.59502967267 0.59509439945 0.59517566238 0.59527068415 
0.60543137871 0.60547685434 0.60551808347 0.60555409252 0.60558387356 0.60560575959 0.60561918613 0.60562613712 0.60562754331 
0.60562587593 0.6056212977 0.60561684678 0.60561593348 0.60562365305 0.60564215677 0.60567025463 0.60570743761 0.6057522548 
0.60580537088 0.60586749726 0.60991690032 0.60995182156 0.60998448768 0.61001588686 0.61004555978 0.61007133692 0.61009150255 
0.61010550622 0.61011375427 0.61011639632 0.61011433324 0.61011036724 0.61010821546 0.61011221893 0.61012453639 0.61014375933 
0.61016856524 0.61019686771 0.61022935997 0.61026790103 0.60833792666 0.6083670014 0.60839681925 0.60842866716 0.60846165984 
0.60849292635 0.60851969638 0.60854083712 0.60855492338 0.60856112451 0.60855969947 0.60855149363 0.60854163805 0.60853531341 
0.60853555628 0.60854216336 0.60855354012 0.60856686535 0.60858263262 0.60860417814 0.60063628795 0.60066574529 0.60069890097 
0.60073701664 0.60077808069 0.60081790451 0.60085362963 0.60088386136 0.60090685896 0.60091832144 0.60091677499 0.60090148335 
0.600876312 0.60085055045 0.60083075056 0.60081949197 0.60081503511 0.60081377445 0.60081580698 0.60082491872 0.58659278237 
0.58662901963 0.58667334975 0.58672419794 0.58677882001 0.58683090709 0.58687966282 0.58692425756 0.58696196088 0.58698434636 
0.58698413161 0.58695832471 0.58691077532 0.58685419232 0.58680334876 0.58676574879 0.58674072827 0.58672477001 0.58671612675 
0.58671633337 0.56592768312 0.56597801005 0.56604117535 0.56611203935 0.56618410743 0.56625286576 0.56631981182 0.56638661417 
0.56644787624 0.56648987638 0.56649668776 0.56645922257 0.56638225712 0.56628387786 0.56618782121 0.56611190282 0.56606039819 
0.56602928322 0.56601304218 0.56600935889 0.53850508756 0.53857232016 0.53865877179 0.53875142742 0.53884248367 0.53893107476 
0.53902257855 0.53912087308 0.53921791253 0.5392904555 0.53931158401 0.53926605905 0.53915779252 0.53901077762 0.53886052323 
0.53873709606 0.53865256544 0.5386046896 0.53858250843 0.53857802221 0.50460310149 0.50468074254 0.50478222558 0.50489095328 
0.50499879937 0.50510896209 0.50523194109 0.50537134069 0.50551359712 0.50562478615 0.50566879479 0.50562377765 0.50549289806 
0.50530486948 0.50510468364 0.50493394651 0.50481389987 0.50474523262 0.5047146793 0.5047063794 0.4651423523 0.46521081896 
0.46530862366 0.46541850976 0.46553602468 0.46566797108 0.46582680972 0.46601203317 0.46620207609 0.46635504839 0.46642759828 
0.4663959835 0.46626233523 0.4660571679 0.46582862391 0.46562525194 0.46547501185 0.46538173003 0.46533278344 0.46531120354 
0.42171658307 0.42175447626 0.42182626205 0.42192019043 0.42203788659 0.42218830144 0.42238075556 0.42260769958 0.42283894573 
0.42302788609 0.42313133264 0.42312538521 0.42301172211 0.42282003831 0.42259558914 0.42238542598 0.42221759942 0.42209916773 
0.4220222055 0.42197615932 0.37639247706 0.37638787093 0.37642035721 0.37648736621 0.37659625956 0.37675671613 0.37697230349 
0.37722700531 0.37748380299 0.37769558011 0.3778231166 0.37784759609 0.37777036914 0.37761652919 0.37742428803 0.37723260101 
0.37706557955 0.37692969462 0.37682408394 0.37674847653 0.30755819737 0.30760071062 0.30762669309 0.30764244129 0.30764807187 
0.30764032105 0.30761350747 0.30756447776 0.30749955628 0.30743198787 0.30737668488 0.30734581614 0.30734606276 0.3073817697 
0.30746047441 0.30758930893 0.30777490547 0.30801658684 0.30830108277 0.30860381808 0.34492194576 0.34498107343 0.34502199177 
0.34504872512 0.34505938828 0.34505041112 0.34501674933 0.34495879272 0.34488546882 0.34481156116 0.34475092791 0.34471302382 
0.34470342813 0.3447261353 0.34479010753 0.34490623521 0.34508350367 0.34532271397 0.34561118465 0.34592299935 0.38296258256 
0.38303982087 0.38309780881 0.38313732165 0.38315471946 0.38314564718 0.38310822802 0.38304624445 0.38297103886 0.3828976735 
0.38283713602 0.38279643067 0.3827782304 0.38278674412 0.38283175656 0.3829276376 0.38308614116 0.3833099469 0.38358592951 
0.38388956019 0.4201264264 0.4202175433 0.42028979755 0.4203397527 0.42036366487 0.42035699329 0.42032049495 0.42026102043 
0.42019082015 0.42012413199 0.42006960293 0.42003016495 0.42000691248 0.420003954 0.42003164253 0.42010554041 0.42023983592 
0.42043819195 0.42068875257 0.42096834784 0.45485605541 0.45495273124 0.45503150525 0.45508702624 0.45511587042 0.45511318793 
0.45508285241 0.45503179138 0.4549727263 0.45491798996 0.45487281944 0.45483872954 0.4548149218 0.45480607497 0.45482265674 
0.45487911421 0.45498918654 0.45515730279 0.45537323362 0.45561703924 0.48579962229 0.48589238565 0.48596903355 0.48602498351 
0.48605628866 0.4860593197 0.48603831495 0.48600023746 0.48595621293 0.48591588003 0.48588180786 0.48585506089 0.48583542827 
0.48582742182 0.48584089629 0.48588640132 0.4859761955 0.48611282488 0.48628949806 0.48649022383 0.51196999182 0.51205174509 
0.51212066593 0.51217266115 0.51220414125 0.5122130214 0.51220290551 0.51217966697 0.51215139328 0.5121245285 0.51210137724 
0.51208315557 0.51207037326 0.51206793243 0.51208274093 0.51212281229 0.51219613856 0.51230323681 0.5124414235 0.51259840216 
0.53279066689 0.53285856825 0.53291724556 0.53296290309 0.53299356743 0.53300764828 0.5330075335 0.53299770001 0.53298278246 
0.53296776394 0.53295456671 0.53294400336 0.53293810572 0.53294181498 0.53295932251 0.53299557215 0.53305467932 0.53313720516 
0.53324053623 0.53335796941 0.54802781239 0.54808237312 0.54813059559 0.54817023971 0.54819985019 0.54821814144 0.54822624911 
0.54822689828 0.54822246116 0.54821675931 0.54821060789 0.54820577128 0.54820547368 0.54821271821 0.54823081798 0.54826236493 
0.5483088598 0.54837007724 0.54844514521 0.54853006353 0.55765767662 0.55770155445 0.55774164384 0.55777649832 0.55780519901 
0.55782697834 0.55784165943 0.55785006148 0.5578538383 0.55785410433 0.55785276645 0.5578510931 0.5578525751 0.55786003196 
0.55787556503 0.55789996124 0.55793428253 0.5579783872 0.55803070548 0.55809035494 0.56173341164 0.56177011051 0.56180482853 
0.56183723615 0.56186647595 0.56189198908 0.56191229112 0.561927474 0.56193691617 0.56194157653 0.56194264576 0.56194139885 
0.56194110377 0.56194431152 0.5619534632 0.56196861303 0.56199071653 0.5620197623 0.56205416245 0.56209429291 0.56029128541 
0.56032394317 0.56035669799 0.56038996473 0.56042248221 0.56045282823 0.56047923709 0.56050066766 0.56051605768 0.56052461539 
0.56052662217 0.56052282161 0.56051660802 0.56051114124 0.56050963185 0.5605131738 0.56052246264 0.56053721387 0.56055679214 
0.5605821596 0.5533108927 0.55334288626 0.55337788363 0.55341569777 0.5534544576 0.55349197083 0.55352639633 0.55355569694 
0.55357870336 0.55359184937 0.55359431572 0.55358569959 0.55356946025 0.55355033188 0.55353332939 0.55352155524 0.55351636693 
0.55351738188 0.5535242095 0.55353785032 0.54073113891 0.54076613842 0.54080753433 0.54085352138 0.54090193436 0.54094938254 
0.5409947489 0.54103558127 0.54106886171 0.54108979816 0.54109315638 0.54107868508 0.54104844177 0.54101040591 0.54097233327 
0.54094050106 0.54091802888 0.5409052656 0.54090088567 0.54090559179 0.52252215184 0.52256242382 0.52261339977 0.52267061047 
0.52273107134 0.52279173656 0.52285145297 0.52290803474 0.52295697602 0.52298982034 0.5229975688 0.52297688434 0.52293049871 
0.52286869288 0.52280413923 0.52274765848 0.52270522388 0.52267779227 0.52266331284 0.52266072626 0.49880453694 0.4988506731 
0.49891120419 0.49898036938 0.49905350811 0.49912911983 0.49920740218 0.49928481846 0.49935504645 0.49940497131 0.49942122402 
0.4993973078 0.49933541854 0.4992486223 0.49915516252 0.49907127384 0.49900688081 0.49896405792 0.49893958675 0.4989301698 
0.46999174161 0.4700392078 0.47010499142 0.47018253905 0.4702670933 0.47035801213 0.47045717635 0.47055941166 0.47065569232 
0.47072735059 0.47075691577 0.47073489822 0.4706630591 0.4705566517 0.47043818665 0.47032905511 0.47024305068 0.47018399152 
0.47014792818 0.47013041403 0.43688850371 0.43692892288 0.43699178468 0.43707035595 0.43716186893 0.43726738944 0.43738741146 
0.43751585791 0.43763865296 0.43773390987 0.43778072115 0.43776750838 0.43769580769 0.43758140384 0.43744868215 0.43732239615 
0.43721865842 0.43714315648 0.43709341509 0.4370642987 0.4006957594 0.40071999904 0.40077044609 0.40084201038 0.40093472393 
0.40105035508 0.40118791825 0.40133881522 0.40148477192 0.40160116669 0.40166632688 0.4016678646 0.40160706128 0.40149918574 
0.40136762736 0.40123695661 0.40112345876 0.40103413304 0.4009695313 0.40092544834 0.36289334208 0.36289779276 0.36292950672 
0.36298815281 0.36307623608 0.36319600061 0.36334406782 0.36350833065 0.36366852431 0.36379929608 0.36387919391 0.36389744347 
0.3638553041 0.36376575886 0.36364964374 0.36352757448 0.3634147355 0.36331774605 0.36323992005 0.3631810329 0.30224979227 
0.30229176069 0.30232143984 0.30234004835 0.30234802878 0.3023445588 0.30232833574 0.30230000399 0.30226444573 0.30222874791 
0.3022017573 0.30219116943 0.30220311034 0.30224209645 0.30231255391 0.30241901984 0.30256393475 0.3027440376 0.30295078303 
0.30316915298 0.33412906398 0.33418095275 0.33421882281 0.33424412552 0.33425536416 0.33425232364 0.33423352521 0.3342008056 
0.3341605982 0.33412060613 0.33408929579 0.33407359046 0.33407892171 0.3341100837 0.33417285767 0.33427270246 0.33441289974 
0.33459209342 0.33480079793 0.33502413459 0.36628308257 0.36634453326 0.36639150805 0.36642398556 0.36643960116 0.36643757156 
0.36641813184 0.36638436264 0.3663428876 0.36630215118 0.36626965685 0.36625094731 0.36625071034 0.3662734242 0.36632575836 
0.36641420402 0.3665431799 0.3667130374 0.36691388168 0.36713150729 0.39757253481 0.39764097287 0.39769538267 0.39773378347 
0.39775388374 0.39775438174 0.3977366328 0.39770511319 0.39766625152 0.39762855343 0.39759806267 0.39757905722 0.39757499965 
0.39759078505 0.39763222561 0.397707529 0.39782140657 0.39797510695 0.39815942231 0.398361636 0.42685341679 0.42692432997 
0.42698255701 0.42702453382 0.42704801179 0.42705193067 0.42703856813 0.42701239818 0.4269801856 0.42694828585 0.42692250376 
0.42690532704 0.42690049814 0.42691146022 0.42694441302 0.42700697857 0.42710476572 0.42723824801 0.42740045935 0.42757959105 
0.45310530433 0.45317408185 0.45323147031 0.45327427937 0.4533000777 0.45330801893 0.45330063936 0.45328209251 0.4532580526 
0.45323433371 0.45321483135 0.45320166981 0.45319791979 0.45320702233 0.45323480974 0.45328713713 0.45336914825 0.45348110993 
0.45361783938 0.45376965983 0.47552635071 0.47558916439 0.4756424746 0.47568386172 0.47571078856 0.47572285379 0.4757219627 
0.47571172037 0.4756969153 0.47568165669 0.47566842015 0.47566019043 0.47565941062 0.4756689553 0.4756936497 0.47573800843 
0.47580569599 0.47589700133 0.47600796526 0.476131441 0.49357075306 0.4936254268 0.4936732396 0.49371160241 0.49373877848 
0.49375426666 0.49375975337 0.49375738028 0.49375091161 0.49374322797 0.49373638566 0.49373295776 0.49373525406 0.49374575678 
0.49376817737 0.49380596421 0.49386082416 0.4939327184 0.49401991635 0.49411679825 0.50692346807 0.50697026088 0.50701215493 
0.50704711248 0.50707403265 0.50709262166 0.50710395961 0.50710827278 0.50710906604 0.50710742913 0.5071058344 0.50710553816 
0.5071098637 0.50712048673 0.50714025761 0.5071711782 0.50721407953 0.50726966853 0.507335804 0.50740923411 0.51543693349 
0.51547682616 0.51551364054 0.51554597848 0.51557304521 0.51559449655 0.51561044555 0.51562078013 0.51562699307 0.51563016088 
0.51563223867 0.51563392323 0.51563824935 0.51564725648 0.51566257178 0.51568576376 0.51571756535 0.51575863554 0.51580688264 
0.51586100429 0.51905816156 0.5190932318 0.51912677828 0.51915788493 0.51918579194 0.51921074256 0.51923085914 0.51924655595 
0.51925759693 0.51926432819 0.51926820506 0.5192699021 0.51927235241 0.51927689688 0.5192859499 0.51930056267 0.519321407 
0.51934905604 0.51938233172 0.51942080229 0.51777408717 0.51780591422 0.51783840144 0.51787040291 0.5179008624 0.51792987359 
0.51795508397 0.51797598896 0.51799180859 0.518002023 0.51800643026 0.51800665592 0.51800455353 0.51800221046 0.51800237238 
0.51800688725 0.51801596605 0.51803131235 0.51805185712 0.51807757884 0.51158507086 0.51161573565 0.51164938071 0.51168456757 
0.51171985219 0.51175413639 0.5117859502 0.51181323598 0.51183467147 0.51184868105 0.51185369332 0.51185068562 0.51184197265 
0.51183011372 0.5118186767 0.51181080094 0.5118077353 0.51181106243 0.51182007258 0.51183491335 0.50051642849 0.50054769869 
0.50058449508 0.500624981 0.50066696858 0.50070916289 0.50074895939 0.50078444704 0.50081347443 0.50083250574 0.50083907959 
0.50083217914 0.50081500505 0.50079118543 0.50076514963 0.50074271253 0.5007264178 0.50071754378 0.50071610582 0.50072206802 
0.48466050967 0.48469406226 0.48473558498 0.4847826824 0.48483252991 0.48488379553 0.48493449157 0.48498093184 0.48502003897 
0.4850467372 0.48505582377 0.48504648928 0.48501952375 0.48498149252 0.48493970142 0.48490110025 0.48487016936 0.48484902711 
0.48483756404 0.4848354488 0.46424770193 0.46428302199 0.46432827595 0.46438190046 0.46444028909 0.46450206139 0.46456496087 
0.46462490031 0.46467728469 0.46471402874 0.46472845647 0.46471775624 0.46468284964 0.46463147149 0.46457339086 0.46451798717 
0.46447213485 0.46443854252 0.46441735381 0.46440749754 0.43971317815 0.43974764674 0.43979512714 0.43985299522 0.43991867967 
0.43999088439 0.44006701291 0.44014237082 0.4402098176 0.44025924862 0.44028157586 0.44027271231 0.44023351891 0.44017220114 
0.44010020896 0.44003020272 0.43997016212 0.43992484867 0.43989346503 0.4398752817 0.41174416289 0.41177359152 0.41181919313 
0.41187816884 0.41194850853 0.41202968062 0.41211827145 0.41220872397 0.41229152634 0.41235465983 0.41238732739 0.41238377247 
0.41234536391 0.41227963354 0.41220035382 0.41212063513 0.4120497317 0.4119932861 0.41195190468 0.41192450382 0.38126913239 
0.38129012641 0.38132927707 0.38138501689 0.38145636966 0.38154321078 0.38164150159 0.38174421671 0.38184006334 0.38191550548 
0.38195905657 0.38196382604 0.38193138246 0.38186917773 0.38179025299 0.38170725607 0.38163042673 0.38156573222 0.38151526286 
0.38147784985 0.3493852176 0.34939604567 0.34942560983 0.34947506249 0.34954385969 0.34963225977 0.34973542979 0.349845043 
0.34994868495 0.3500328829 0.35008522021 0.35009936485 0.35007690641 0.35002404213 0.34995258089 0.34987368944 0.34979713114 
0.34972841115 0.34967107759 0.34962531824 0.2956363215 0.2956735201 0.29570213032 0.29572111991 0.29573163502 0.29573307312 
0.29572619735 0.29571255464 0.29569510055 0.29567909843 0.295669797 0.29567241883 0.29569188724 0.29573150819 0.2957941311 
0.29588235452 0.29599647951 0.29613381522 0.29628796915 0.29645012497 0.32305381601 0.32309729246 0.32313102601 0.32315399617 
0.32316683707 0.32316896221 0.32316124247 0.32314526122 0.32312533642 0.32310666404 0.32309406446 0.32309333076 0.32310830445 
0.32314306251 0.32320129941 0.32328554319 0.32339717044 0.32353400674 0.32368946314 0.32385399482 0.35048131026 0.35053041852 
0.35056911478 0.35059670106 0.35061219724 0.35061601513 0.3506083683 0.3505921573 0.35057163786 0.3505519153 0.35053825822 
0.35053474164 0.35054610407 0.35057536555 0.35062738273 0.35070488225 0.3508099453 0.35094030418 0.35109048465 0.35125109079 
0.3770608159 0.37711361394 0.37715637357 0.37718769946 0.37720633059 0.37721195524 0.37720614943 0.37719165777 0.3771725763 
0.37715423263 0.37714096225 0.37713656886 0.37714488236 0.37716929232 0.37721440488 0.37728320775 0.37737848842 0.37749821742 
0.37763774919 0.37778805188 0.40192780636 0.40198188772 0.40202658427 0.40206047259 0.40208145112 0.40208990466 0.40208701329 
0.40207595137 0.40206051007 0.40204504465 0.40203404577 0.40203005647 0.40203692586 0.40205768532 0.40209602336 0.40215611375 
0.40223953186 0.40234619084 0.4024705938 0.40260605902 0.42429356127 0.42434634402 0.42439088959 0.42442540004 0.42444805875 
0.42445946416 0.42446033145 0.42445385298 0.42444317297 0.42443222385 0.42442444748 0.42442210577 0.42442869324 0.42444686922 
0.42447994301 0.42453165712 0.42460298222 0.42469481443 0.42480229221 0.42491962766 0.44350485541 0.44355423369 0.44359663838 
0.44363068273 0.44365463592 0.44366864834 0.44367351021 0.44367216936 0.44366686999 0.44366105817 0.44365679245 0.44365669969 
0.44366394706 0.44368040025 0.44370921009 0.44375349077 0.44381323837 0.44388993094 0.44397964258 0.44407755189 0.45907484019 
0.45911955766 0.45915871712 0.45919136802 0.45921566608 0.45923231631 0.45924164416 0.45924479471 0.45924494441 0.45924367744 
0.45924312622 0.45924543843 0.45925334788 0.45926836771 0.45929357336 0.45933027728 0.45937974111 0.45944201993 0.45951457588 
0.45959394022 0.47067670536 0.4707166257 0.47075256254 0.47078334613 0.47080796887 0.47082652446 0.47083971566 0.47084739509 
0.47085245962 0.47085517801 0.47085770554 0.47086178916 0.47086958265 0.47088311514 0.47090406777 0.47093385632 0.47097324774 
0.47102208199 0.47107912761 0.47114177274 0.47811564242 0.47815102768 0.4781838146 0.47821346892 0.47823861959 0.47825943562 
0.47827591905 0.47828790658 0.47829654468 0.47830241301 0.4783074273 0.47831228128 0.47831933349 0.47833015255 0.47834626276 
0.47836906016 0.47839827102 0.47843547175 0.47847855765 0.47852623484 0.48129056223 0.48132235447 0.4813533447 0.48138221532 
0.48140834378 0.48143181996 0.48145165296 0.48146781043 0.48147975887 0.4814885248 0.48149456602 0.4814994769 0.48150426303 
0.48151098991 0.48152105518 0.48153594056 0.48155609068 0.48158158431 0.48161265805 0.48164773193 0.4801633979 0.48019310566 
0.48022322876 0.48025302174 0.48028142129 0.48030787789 0.48033159763 0.48035150405 0.48036722798 0.48037865291 0.48038496324 
0.48038869578 0.48039046056 0.48039138427 0.48039439524 0.4804005442 0.48041089713 0.48042603055 0.48044615106 0.48047040612 
0.47474608311 0.47477450878 0.4748052798 0.47483682657 0.47486860034 0.47489948979 0.47492790376 0.47495264807 0.47497232302 
0.47498663852 0.4749936115 0.47499488521 0.47499213854 0.47498638804 0.47498054557 0.47497717104 0.47497727992 0.47498253027 
0.47499248706 0.47500764354 0.46510395819 0.46513220693 0.4651645913 0.46519947687 0.46523559029 0.46527185922 0.46530632386 
0.46533706222 0.46536194776 0.46537944448 0.46538780602 0.46538665849 0.4653782437 0.46536459898 0.46534912792 0.46533519624 
0.46532501379 0.46531994461 0.46532088367 0.46532763729 0.45138246418 0.45141143952 0.4514457449 0.45148445846 0.45152567085 
0.45156856035 0.45161024115 0.45164814559 0.45167976095 0.45170206654 0.4517124147 0.45170964896 0.45169538694 0.45167344262 
0.45164760288 0.45162246339 0.45160178791 0.451586869 0.45157905033 0.45157816675 0.43384279011 0.43387140512 0.43390767496 
0.43395027673 0.43399698778 0.43404646775 0.43409612767 0.43414287679 0.43418282967 0.43421133255 0.43422464715 0.43422170412 
0.43420325592 0.4341730213 0.43413734304 0.43410181068 0.43407057103 0.43404609668 0.43402970198 0.43402168143 0.41289481248 
0.4129226496 0.41295977373 0.41300459871 0.41305603972 0.41311239393 0.41317015223 0.41322654552 0.41327528396 0.41331148791 
0.41332976634 0.41332779835 0.41330703698 0.41327127426 0.41322767801 0.41318295682 0.41314245375 0.4131088909 0.41308454883 
0.41306934912 0.38911775776 0.38914252861 0.38917829124 0.38922394354 0.38927837357 0.38933986022 0.38940545223 0.38947034314 
0.38952805938 0.38957214561 0.38959655293 0.38959798522 0.38957764603 0.38953973537 0.38949167372 0.38944071836 0.3893929961 
0.38935213028 0.38932041473 0.38929762654 0.3632418082 0.36326196364 0.36329403201 0.36333840179 0.36339342714 0.36345832296 
0.36352914961 0.36360068311 0.36366597634 0.36371745329 0.36374800217 0.36375428511 0.36373750871 0.36370109808 0.36365265703 
0.36359945645 0.36354775524 0.3635016567 0.36346367959 0.36343418512 0.33610310785 0.33611770682 0.33614485432 0.33618555257 
0.33623906909 0.33630441246 0.33637775348 0.33645292771 0.33652256325 0.33657885131 0.33661492326 0.33662633581 0.33661498574 
0.3365833787 0.33653865949 0.33648731926 0.33643517704 0.33638656656 0.33634432264 0.3363094728 0.28822511877 0.28825732624 
0.28828298608 0.28830170923 0.28831377397 0.28831938023 0.28831949532 0.28831545663 0.2883099027 0.28830625409 0.28830795792 
0.28831890075 0.28834222649 0.28838049606 0.28843550985 0.28850909162 0.28860029942 0.28870689601 0.28882463016 0.28894757572 
0.3119628906 0.31199921897 0.31202839547 0.3120495553 0.31206344866 0.3120697036 0.3120694507 0.31206482639 0.31205792205 
0.31205225118 0.31205188911 0.31206021251 0.3120808955 0.31211629803 0.31216842557 0.31223931497 0.31232915292 0.31243532334 
0.31255348817 0.3126779364 0.33553678645 0.33557605887 0.33560838118 0.33563224763 0.3356481775 0.33565598434 0.33565618997 
0.33565132254 0.33564402052 0.33563785543 0.33563615685 0.33564277253 0.33566030836 0.33569238725 0.33574071447 0.33580709007 
0.33589250805 0.33599433466 0.33610925173 0.33623059406 0.35828337901 0.35832501985 0.35835970768 0.35838602702 0.35840379412 
0.35841317336 0.35841490275 0.35841107689 0.35840455498 0.35839894157 0.35839702969 0.35840250745 0.35841798399 0.35844590912 
0.3584898416 0.35855060216 0.35862917118 0.35872387522 0.35883164311 0.35894589185 0.37953496536 0.37957734139 0.37961334561 
0.37964135067 0.37966091659 0.37967198006 0.3796757078 0.37967408103 0.37966942991 0.37966540993 0.37966432714 0.37966981433 
0.37968337611 0.37970842803 0.37974734469 0.37980154079 0.37987185049 0.37995718814 0.3800547425 0.38015887114 0.39867048356 
0.39871200037 0.39874798556 0.39877672964 0.398797463 0.39881069508 0.39881670744 0.39881786885 0.39881635012 0.39881457603 
0.39881485463 0.39882055158 0.39883338582 0.39885569573 0.39888954042 0.39893712947 0.3989988225 0.3990736547 0.39915915214 
0.3992511663 0.41515676399 0.41519625294 0.41523112939 0.41525961741 0.41528128969 0.41529649261 0.41530529463 0.41530947348 
0.4153111452 0.41531200583 0.41531439277 0.41532077981 0.41533285144 0.41535289058 0.415382499 0.41542349069 0.4154761271 
0.4155400157 0.41561304358 0.41569167677 0.42857229513 0.42860917601 0.42864207749 0.42867003238 0.42869231386 0.42870910095 
0.42872048856 0.42872803256 0.42873267457 0.42873645175 0.42874077808 0.42874781229 0.42875934897 0.42877711515 0.42880277466 
0.4288372903 0.42888101225 0.42893420997 0.42899474051 0.4290598862 0.43861090446 0.43864455422 0.43867552254 0.43870263276 
0.43872535865 0.43874370806 0.43875764076 0.43876835426 0.43877596104 0.43878196131 0.43878788969 0.43879567413 0.4388064766 
0.43882169164 0.43884312577 0.43887125904 0.43890672671 0.43894934937 0.43899815503 0.43905070496 0.4450697213 0.44510056152 
0.44512974792 0.44515630913 0.4451795177 0.44519927102 0.44521569823 0.4452291015 0.44523963384 0.44524781534 0.44525482299 
0.44526273327 0.44527193081 0.44528422905 0.44530086501 0.44532270218 0.44535017097 0.44538272979 0.4454208311 0.44546221014 
0.44783186159 0.44786035459 0.44788827561 0.447914672 0.44793903116 0.44796055223 0.44797973973 0.44799566453 0.44800844084 
0.4480184962 0.44802637035 0.44803383416 0.44804115649 0.44804964616 0.44806090692 0.44807620423 0.44809543141 0.44811887657 
0.44814711401 0.44817841551 0.44685084707 0.44687759482 0.44690514896 0.44693182586 0.4469577905 0.44698140906 0.44700373605 
0.44702254574 0.44703789068 0.44704967365 0.44705802876 0.4470642208 0.44706871935 0.44707304988 0.44707838451 0.44708623014 
0.44709767049 0.44711252623 0.44713151542 0.44715379096 0.44214177107 0.44216761758 0.44219512288 0.44222336262 0.44225141325 
0.44227854475 0.44230380608 0.44232607516 0.44234443558 0.44235786279 0.44236694235 0.44237127292 0.44237248217 0.44237171918 
0.44237066835 0.44237100625 0.44237427943 0.44238083221 0.44239144916 0.44240575897 0.43378576718 0.43381123217 0.43383941838 
0.43386954389 0.43390035175 0.43393126228 0.43396065382 0.43398706805 0.43400879367 0.43402482237 0.43403434708 0.43403719247 
0.43403461475 0.43402830973 0.43402042728 0.43401308052 0.43400811449 0.43400664125 0.43400939519 0.43401646345 0.42194185781 
0.42196688045 0.42199607003 0.42202836046 0.4220627117 0.42209800105 0.42213196544 0.42216305925 0.42218932021 0.42220827716 
0.42221908126 0.42222070496 0.42221480987 0.42220286288 0.4221878565 0.42217295643 0.4221601432 0.42215084744 0.42214615685 
0.42214655085 0.40686497872 0.40688975982 0.40692001334 0.40695409879 0.40699193903 0.40703158767 0.40707081556 0.40710764213 
0.40713876067 0.40716176739 0.40717446688 0.40717562985 0.40716704676 0.40715032378 0.40712889736 0.4071065735 0.407086328 
0.40706975275 0.40705818031 0.40705218123 0.38892239311 0.38894631528 0.38897653516 0.38901240378 0.38905317533 0.38909677361 
0.3891414116 0.38918385651 0.38922025413 0.38924773619 0.38926335469 0.38926572112 0.38925545099 0.3892352313 0.38920868228 
0.38918038593 0.38915348396 0.38913017541 0.38911241023 0.38910022008 0.36859693601 0.36861909507 0.36864833539 0.36868456995 
0.3687271393 0.36877402891 0.36882288501 0.36887028398 0.36891216135 0.36894420506 0.36896325676 0.36896759246 0.3689574555 
0.36893589744 0.36890658081 0.36887387265 0.36884205755 0.3688134062 0.368789929 0.36877208997 0.34647123786 0.34649062121 
0.34651770863 0.34655313909 0.34659618795 0.34664470632 0.34669672361 0.34674801356 0.34679413536 0.34683048482 0.34685297994 
0.34686003345 0.34685151628 0.34683063092 0.34680084731 0.3467665088 0.34673155221 0.34669920583 0.34667117669 0.3466486727 
0.32319599283 0.32321218403 0.32323657878 0.32326970709 0.32331151454 0.32336007747 0.32341342135 0.32346653629 0.3235150912 
0.32355401266 0.32357957203 0.32358990251 0.32358426242 0.3235658394 0.32353734805 0.32350374746 0.32346815096 0.32343402902 
0.32340316072 0.32337679958 0.28036335608 0.28039094212 0.28041342791 0.28043149095 0.28044449736 0.28045312234 0.28045792534 
0.28046055372 0.28046249556 0.2804664699 0.28047502476 0.28049066008 0.28051542008 0.2805512752 0.28059962444 0.28066095842 
0.28073468655 0.28081877114 0.28091022512 0.28100526749 0.30103298555 0.30106327249 0.30108841942 0.30110824209 0.30112252226 
0.30113173545 0.30113664217 0.3011387631 0.30113988686 0.30114271916 0.30114975408 0.30116366882 0.30118672016 0.30122084952 
0.30126721898 0.30132719174 0.30139965425 0.30148331538 0.30157497985 0.30167074044 0.32142431949 0.32145664131 0.32148361551 
0.32150501566 0.3215209624 0.3215309677 0.32153663323 0.32153885572 0.321539815 0.32154201493 0.32154818691 0.32156073101 
0.32158172348 0.32161345467 0.32165703235 0.32171376985 0.32178334028 0.32186428373 0.32195338654 0.32204696694 0.34101498851 
0.34104863331 0.34107732767 0.34110016066 0.34111732045 0.34112882622 0.34113517048 0.3411381509 0.34113961968 0.34114225712 
0.34114782873 0.34115925686 0.34117828636 0.34120735097 0.34124748638 0.3413003713 0.34136517024 0.34144099514 0.34152517484 
0.34161387887 0.35927873693 0.35931292341 0.35934239201 0.3593663638 0.35938478284 0.35939739283 0.35940540727 0.35940955661 
0.35941204587 0.35941534869 0.35942116525 0.35943180316 0.35944949355 0.35947549857 0.35951207128 0.35956020422 0.35961917108 
0.3596881695 0.35976551445 0.35984710634 0.37571982648 0.37575347793 0.37578307525 0.37580759373 0.37582699739 0.37584089446 
0.37585041192 0.37585633567 0.37586070257 0.3758650574 0.37587131342 0.37588188132 0.37589800486 0.37592174378 0.37595460077 
0.37599694363 0.37604938953 0.37611077225 0.37617978986 0.37625259006 0.38990207186 0.38993455492 0.3899634035 0.3899878967 