# vtk DataFile Version 5.1
vtk output
ASCII
DATASET STRUCTURED_POINTS
DIMENSIONS 50 50 50
SPACING 0.002 0.002 0.002
ORIGIN 0.2174 -0.052672 0.02732
POINT_DATA 125000
FIELD FieldData 1
potential 1 125000 double
0.0054832772935 0.0055038436766 0.0055236972713 0.0055428184359 0.0055611969628 0.0055788489589 0.005595746164 0.0056119219893 0.0056273845643 
0.0056421393977 0.005656187876 0.0056695313051 0.0056821532241 0.0056940377929 0.0057051616427 0.0057154896645 0.0057249791015 0.0057336028931 
0.0057413180707 0.0057481028952 0.005753934338 0.0057587953262 0.005762697289 0.005765638603 0.0057676313498 0.0057686519127 0.0057688112983 
0.0057680942417 0.0057665051067 0.0057640788043 0.0057608330335 0.005756785346 0.0057519481202 0.0057463433527 0.0057399780826 0.0057328364256 
0.0057249484049 0.0057163169339 0.0057069593217 0.0056968890988 0.0056861221672 0.0056746768877 0.0056625531896 0.0056498203444 0.0056364382437 
0.0056224029045 0.0056077346961 0.0055924126916 0.0055764215759 0.0055597574389 0.0056063675661 0.0056276758316 0.0056482581679 0.0056681054834 
0.0056871752524 0.0057054891632 0.0057230572335 0.0057398715976 0.0057559355578 0.0057712779992 0.0057858908874 0.0057997699095 0.0058129006517 
0.0058252646391 0.0058368252513 0.0058475551426 0.0058574192836 0.0058663699143 0.0058743752935 0.0058814123298 0.0058874650714 0.0058924786859 
0.0058965255293 0.0058995800481 0.0059016574976 0.0059027703241 0.0059029421997 0.0059022005293 0.0059005734064 0.0058980768363 0.005894728119 
0.0058905500618 0.0058855504823 0.0058797376771 0.005873134089 0.0058657282241 0.005857531653 0.0058485298463 0.0058387919677 0.0058283078313 
0.0058170986345 0.0058051814319 0.0057925691408 0.0057792803488 0.0057653317678 0.0057507146154 0.0057354516266 0.0057195014972 0.0057028505376 
0.0056854935386 0.0057301129412 0.005752193568 0.0057735531038 0.0057941143099 0.0058139000678 0.0058328910728 0.0058511238438 0.0058686057843 
0.0058853160642 0.0059012742849 0.0059164731818 0.0059309066721 0.0059445615435 0.0059574074188 0.0059694210279 0.0059805555794 0.0059907902981 
0.0060000450566 0.0060083518066 0.0060156547275 0.0060219302878 0.0060271766638 0.0060313836762 0.0060345673389 0.0060367301433 0.0060379000939 
0.0060381008724 0.0060373507008 0.0060356876412 0.0060331289424 0.0060296863893 0.0060253750285 0.0060202136197 0.0060141916843 0.0060073327143 
0.0059996500615 0.0059911361011 0.0059818062131 0.0059716723811 0.005960760121 0.0059490617268 0.0059366475848 0.00592350731 0.0059096556734 
0.0058951104266 0.0058798710628 0.0058639376608 0.0058472918792 0.0058299289727 0.0058118586263 0.0058540891135 0.0058769567312 0.005899046318 
0.0059203644074 0.0059408950997 0.0059606233546 0.0059795653793 0.0059977203971 0.0060150874353 0.0060316785414 0.0060474904459 0.0060624994677 
0.0060766931311 0.0060900350425 0.0061024884559 0.0061140546686 0.0061246706055 0.0061343073657 0.0061429237569 0.006150498053 0.0061570061242 
0.0061624443722 0.0061668205536 0.0061701280723 0.0061724035821 0.0061736418902 0.0061738752221 0.0061731367467 0.0061714462223 0.0061688217519 
0.006165268715 0.0061608305335 0.0061554957475 0.0061492727633 0.0061421793122 0.0061341988019 0.0061253528709 0.0061156519192 0.0061051154008 
0.006093751198 0.0060815849041 0.0060686470034 0.0060549393232 0.0060404808496 0.0060252998503 0.0060093881719 0.005992761223 0.0059754080775 
0.0059573056294 0.0059384366614 0.0059779053331 0.0060015980992 0.0060244985179 0.0060466005278 0.0060678939326 0.0060883728771 0.0061080421503 
0.0061269069851 0.0061449661954 0.0061622107501 0.0061786453051 0.0061942142016 0.0062089732159 0.006222836725 0.0062357916453 0.0062477964163 
0.0062588100065 0.0062688028294 0.0062777388314 0.0062855940784 0.0062923509477 0.0062980012595 0.0063025417996 0.0063059888558 0.0063083536788 
0.0063096666202 0.0063099593016 0.0063092318041 0.0063075190007 0.0063048386487 0.0063012073395 0.006296636886 0.0062911303099 0.0062847062819 
0.0062773493591 0.0062690735188 0.0062598869456 0.0062497988787 0.00623884338 0.0062270033194 0.0062143368783 0.0062008468657 0.0061865456711 
0.006171474085 0.0061556219007 0.0061390221963 0.006121652657 0.0061035330636 0.0060846365545 0.0060649528128 0.0061014887436 0.0061260288222 
0.0061497614527 0.0061726737959 0.0061947569175 0.0062160146587 0.0062364405549 0.006256035491 0.0062747987955 0.0062927051453 0.0063097797969 
0.0063259919299 0.0063413185008 0.0063557205684 0.0063691610288 0.0063816235567 0.0063930527927 0.0064034136894 0.0064126830084 0.0064208338196 
0.0064278532274 0.0064337073126 0.0064384239909 0.0064420131197 0.0064444950541 0.0064458815684 0.0064462106469 0.0064455001177 0.0064437763785 
0.0064410454718 0.0064373270593 0.0064326260491 0.0064269383774 0.0064203015709 0.0064126874984 0.0064041079829 0.006394574099 0.0063840937034 
0.0063726695925 0.0063603394902 0.0063471251938 0.0063330535615 0.0063181495152 0.0063024188582 0.0062858843567 0.0062685687326 0.0062504379181 
0.00623152378 0.0062117928789 0.006191257728 0.006224829336 0.006250256057 0.0062748511072 0.0062986061096 0.0063215203864 0.0063435809534 
0.0063647779529 0.0063851258148 0.0064046185473 0.006423249132 0.0064409947268 0.0064578407714 0.0064737559852 0.006488707979 0.0065026693922 
0.0065155974301 0.0065274626903 0.0065382123124 0.0065478258145 0.0065562781759 0.00656355192 0.0065696263852 0.0065745301122 0.0065782739202 
0.0065808723594 0.0065823286338 0.0065827080656 0.0065820117042 0.0065802638584 0.0065774814391 0.006573681052 0.0065688529268 0.0065629998034 
0.0065561339068 0.0065482509213 0.0065393584609 0.0065294519153 0.0065185589499 0.0065066810094 0.0064938409309 0.0064800732653 0.0064653905214 
0.006449833699 0.0064334106632 0.0064161626462 0.006398073279 0.0063791538235 0.0063594146122 0.0063388299468 0.0063174240484 0.0063481880771 
0.006374529291 0.0064000253737 0.0064246565393 0.0064484146667 0.0064713079408 0.0064933181818 0.0065144714855 0.00653472547 0.0065540790572 
0.006572518626 0.0065900164325 0.0066065656088 0.0066220973262 0.006636593507 0.0066500049427 0.006662304744 0.0066734590829 0.006683412711 
0.0066921709871 0.0066997152264 0.0067060167078 0.0067111270882 0.0067150321178 0.0067177530679 0.0067193147902 0.0067197506798 0.0067190774653 
0.0067173136695 0.0067144712046 0.0067105681913 0.006705594949 0.0066995536196 0.0066924547059 0.0066842941256 0.006675067121 0.0066647990779 
0.00665346923 0.0066411022618 0.0066277369011 0.0066133841346 0.0065981998487 0.0065819723487 0.0065648437968 0.0065468349629 0.0065279569225 
0.0065082154567 0.0064876182906 0.0064661488192 0.0064438043684 0.0064719576681 0.0064992658946 0.0065256982345 0.0065512490067 0.0065759125663 
0.0065996722596 0.0066225348942 0.0066444926791 0.0066655337202 0.0066856535875 0.0067048069274 0.0067229877035 0.0067401631817 0.0067562940445 
0.0067713416529 0.006785262436 0.00679803336 0.0068095952333 0.0068199184847 0.0068290040259 0.0068368299789 0.0068434002704 0.0068487113553 
0.0068527837019 0.0068556510053 0.0068573130168 0.0068577961617 0.0068571333595 0.006855346505 0.0068525590374 0.0068485483742 0.0068434302866 
0.0068372062112 0.0068298690999 0.0068214178696 0.0068118257966 0.0068011389065 0.0067893557564 0.0067765043534 0.0067625836854 0.0067476335215 
0.0067316762677 0.0067147525646 0.0066968838609 0.0066780985308 0.0066584044636 0.0066378013471 0.0066163149329 0.0065939177104 0.0065706270568 
0.0065967687971 0.0066251042894 0.006652519687 0.0066790289172 0.0067046300266 0.0067292814908 0.0067530353765 0.0067758473284 0.0067976911937 
0.0068185868341 0.0068384920692 0.0068573814407 0.0068752296398 0.0068919840199 0.006907602649 0.0069220430404 0.0069352835451 0.0069472828439 
0.0069580076893 0.0069674435669 0.006975576023 0.006982501096 0.0069880364278 0.0069922916715 0.0069952846192 0.0069970473138 0.0069975892394 
0.0069969502145 0.006995145005 0.0069921780845 0.0069880512787 0.006982777002 0.0069763412504 0.0069687428145 0.0069599799832 0.0069500400382 
0.0069389393602 0.0069266877517 0.0069132984803 0.0068988075257 0.0068832036926 0.0068665722207 0.0068489245216 0.0068302910073 0.0068106897615 
0.006790136041 0.0067686397104 0.0067462153996 0.0067228800561 0.0066985964172 0.0067232763637 0.0067526479083 0.0067811241672 0.0068086534239 
0.0068352389763 0.0068608882166 0.0068855637393 0.0069092728561 0.0069319972676 0.0069537180727 0.0069744011404 0.006994024903 0.0070125432693 
0.007029938028 0.0070461399662 0.0070612317018 0.0070749745779 0.0070874244136 0.0070985652106 0.0071083638724 0.0071168245419 0.0071239363567 
0.0071297011173 0.0071341365205 0.0071372755825 0.0071391375285 0.0071397426532 0.0071391188231 0.0071372876589 0.0071342465216 0.0071300011781 
0.0071245411349 0.0071178795197 0.0071100056709 0.0071009045545 0.0070905846499 0.0070790383623 0.0070662902444 0.0070523508532 0.0070372640243 
0.0070210304949 0.0070036977493 0.0069852963979 0.0069658534077 0.0069453827599 0.0069239418241 0.0069015305536 0.0068781310066 0.0068537761105 
0.0068284595771 0.0068523000406 0.0068828414545 0.0069124138311 0.0069410401362 0.0069686833266 0.006995329619 0.0070209821111 0.0070456295599 
0.0070692514399 0.0070919096746 0.0071134043236 0.0071337958548 0.0071530469228 0.0071711155268 0.0071879609226 0.007203535825 0.0072178078819 
0.0072307398932 0.0072422957393 0.0072524802069 0.0072612846479 0.0072686818002 0.0072746940288 0.0072793332757 0.0072826335146 0.0072845961586 
0.0072852695069 0.0072846640704 0.007282788219 0.0072796562446 0.0072752805297 0.0072696369952 0.0072627318872 0.0072545577751 0.007245100298 
0.0072343697039 0.0072223656419 0.0072090930049 0.0071945848731 0.0071788688325 0.0071619535277 0.0071438887562 0.0071247018719 0.007104432918 
0.0070830977894 0.007060735743 0.0070373536247 0.0070129359524 0.0069875472832 0.0069611394753 0.0069848370821 0.0070165737263 0.0070473284762 
0.0070770810466 0.0071059054057 0.0071336294059 0.0071603200544 0.0071859577095 0.0072105173415 0.0072339900586 0.0072563418977 0.0072775366113 
0.0072975426168 0.0073163169137 0.0073338076377 0.0073499778634 0.0073647998915 0.0073782425804 0.0073902678306 0.0074008554629 0.0074100116612 
0.007417717333 0.0074239841712 0.0074288463901 0.0074323111974 0.0074344093593 0.0074351489265 0.0074345460026 0.0074326281666 0.0074294007699 
0.0074248704108 0.0074189576472 0.0074117891163 0.0074032903956 0.0073934564494 0.0073822921435 0.0073698006832 0.0073559810912 0.0073408626936 
0.0073244703344 0.0073068426219 0.007288017084 0.0072680140382 0.007246873457 0.0072246273406 0.007201301617 0.0071769170104 0.0071514702887 
0.0071249812544 0.0070974247242 0.0071217894186 0.0071548011395 0.0071867982882 0.0072177625168 0.0072476764127 0.0072765303129 0.0073043110107 
0.0073309807485 0.007356542134 0.0073809757785 0.007404223885 0.0074262595479 0.0074470605518 0.0074665678634 0.0074847363289 0.0075015415759 
0.007516944284 0.0075309020549 0.0075434046723 0.0075544322726 0.007563970447 0.0075720135546 0.0075785779663 0.0075836709845 0.0075873266229 
0.0075894721136 0.0075902686837 0.0075896869769 0.0075877236762 0.0075844046494 0.0075796804125 0.0075736091021 0.0075661535662 0.00755730936 
0.0075470866732 0.0075354535959 0.0075224298013 0.0075080311625 0.0074922757948 0.007475192518 0.007456813488 0.0074371826823 0.0074163289008 
0.007394297956 0.0073710917995 0.0073467611777 0.0073213136794 0.0072947670936 0.0072671361048 0.0072384125287 0.0072638792698 0.0072982305809 
0.0073315592725 0.0073638106139 0.0073949674185 0.0074250262855 0.0074539535517 0.0074817349478 0.0075083515095 0.0075337763527 0.0075579754086 
0.007580898656 0.0076025226699 0.0076227763284 0.007641658992 0.0076591283692 0.0076751422864 0.0076896673142 0.0077026892656 0.0077141733401 
0.0077241162285 0.0077324712159 0.0077393363551 0.0077446860175 0.0077485276449 0.0077508774962 0.0077517583933 0.0077511809717 0.0077491585133 
0.0077456876473 0.0077408005377 0.0077344812168 0.007726725349 0.0077175129791 0.0077068327347 0.0076947029525 0.0076811270135 0.0076661152255 
0.0076496891372 0.0076318842604 0.0076127291474 0.0075922635132 0.0075705153656 0.0075475313991 0.0075233335577 0.007497944047 0.0074713859032 
0.0074436746925 0.007414840001 0.0073848830791 0.0074119910305 0.0074477939813 0.0074825143491 0.0075161228448 0.0075486004256 0.00757992854 
0.0076100714669 0.0076390173245 0.0076667392158 0.0076932108501 0.0077184073236 0.0077422688747 0.0077647514262 0.0077858450974 0.0078054919737 
0.0078236638184 0.007840329077 0.0078554511522 0.0078689550127 0.0078809371923 0.0078913027137 0.007900086563 0.0079072813489 0.007912899418 
0.0079169448841 0.0079194368087 0.007920393368 0.0079198307162 0.0079177504939 0.0079141684373 0.0079090679993 0.0079024627828 0.0078943514555 
0.0078847284517 0.00787358679 0.0078609488832 0.0078467777606 0.0078311365565 0.0078139727324 0.0077954041858 0.0077754295152 0.00775408183 
0.0077314077204 0.0077074213422 0.0076821623151 0.0076556678616 0.0076279603828 0.0075990255083 0.0075689238945 0.0075376522163 0.0075668657715 
0.0076041967548 0.0076404006283 0.0076754473316 0.0077093185233 0.0077419903535 0.0077734322651 0.0078036065268 0.0078325037602 0.0078600797542 
0.0078863088477 0.0079111542437 0.0079345686709 0.0079565471798 0.0079769627759 0.0079958866669 0.0080132317526 0.0080289731508 0.0080430972597 
0.008055585078 0.0080664232624 0.0080756172853 0.0080831470847 0.0080890495903 0.0080933141565 0.0080959391219 0.0080969743221 0.008096416589 
0.0080942951759 0.0080905696605 0.0080852728393 0.008078388611 0.0080699234318 0.0080598510768 0.0080481749451 0.0080348958868 0.0080201092676 
0.0080037835121 0.0079859192812 0.0079665485174 0.0079457099898 0.0079234471443 0.0078997689959 0.0078747259704 0.0078483580203 0.0078206954229 
0.0077917538004 0.0077615669876 0.0077301256482 0.0076974728093 0.0077291555981 0.0077680990925 0.0078058688794 0.0078424602011 0.0078778112415 
0.007911898356 0.0079447011289 0.0079761808844 0.0080063222202 0.0080351052962 0.008062445791 0.0080883365937 0.0081127088154 0.0081355938326 
0.0081568935439 0.0081765986098 0.0081946738392 0.0082110910729 0.0082258269956 0.0082388706961 0.0082501950832 0.0082598184633 0.0082677361349 
0.0082739194377 0.0082784141632 0.0082812156032 0.0082823253234 0.0082817759005 0.0082794988101 0.0082756073697 0.0082700608339 0.0082628588403 
0.0082539996682 0.0082435226252 0.0082313488168 0.0082175344208 0.0082020617843 0.0081849828852 0.0081663257068 0.008146119783 0.0081243678194 
0.0081011171931 0.0080764223304 0.008050271459 0.0080227427754 0.007993826112 0.0079635968534 0.0079320441284 0.0078992167653 0.0078650911963 
0.0078994924287 0.007940149615 0.0079795822243 0.008017766633 0.00805467679 0.0080902530963 0.0081245180158 0.0081573850348 0.0081888542156 
0.0082188267938 0.0082473705759 0.0082743809214 0.0082998274889 0.0083236799347 0.0083459069158 0.0083664574489 0.0083853083835 0.0084024368242 
0.0084178264836 0.0084314526304 0.0084433117076 0.0084533831913 0.0084616800943 0.0084681917892 0.0084728822225 0.0084758432339 0.0084770176185 
0.0084764727954 0.0084741679426 0.008470112446 0.0084643181121 0.00845676276 0.0084475070282 0.0084365063585 0.0084237734271 0.0084093306624 
0.0083931770411 0.0083753645081 0.0083558600616 0.0083347260305 0.0083119920641 0.0082877235786 0.0082619071866 0.0082346033818 0.0082058340559 
0.008175649511 0.0081440468608 0.0081110751645 0.008076739822 0.0080410883882 0.0080784011133 0.0081208548463 0.0081620445193 0.0082019668336 
0.0082405065474 0.0082776820284 0.0083134633896 0.0083477657387 0.0083806111883 0.0084119476709 0.0084417357197 0.0084699383654 0.0084964976117 
0.0085213893522 0.00854459053 0.0085660457103 0.00858573863 0.008603633004 0.0086197154991 0.0086339569613 0.0086463362903 0.008656900008 
0.0086655953502 0.0086724149254 0.0086773959304 0.0086805147876 0.0086818043513 0.0086812477194 0.0086788441968 0.0086746008099 0.0086685753826 
0.0086606940623 0.0086509880843 0.0086394485211 0.0086261230864 0.0086110063304 0.0085941172754 0.0085754413868 0.0085550616424 0.0085330110096 
0.0085092880199 0.0084838919205 0.0084569117308 0.0084283855449 0.0083983062376 0.008366724892 0.0083336794941 0.008299219306 0.0082633176967 
0.0082260487467 0.0082663970303 0.0083107759859 0.0083538104864 0.0083954876105 0.0084357622442 0.0084746277877 0.0085120046538 0.0085478924528 
0.0085822176437 0.0086149760713 0.0086460851526 0.0086755389671 0.008703281698 0.0087292865371 0.00875351619 0.0087759301375 0.0087965156582 
0.0088152123913 0.0088320265792 0.0088469410744 0.0088599502714 0.0088709852278 0.0088801352551 0.0088873200703 0.0088925570711 0.0088958658702 
0.0088972269132 0.0088966562363 0.0088941421397 0.0088897158527 0.0088833698439 0.0088751013971 0.0088649342597 0.008852865483 0.0088389713377 
0.0088231491256 0.0088054653248 0.008785957806 0.0087646614199 0.0087415673104 0.0087167290657 0.0086901787127 0.00866198848 0.008632113374 
0.0086006572718 0.0085675918858 0.0085330294273 0.0084969687446 0.0084594433797 0.0084204692752 0.0084641990445 0.008510576276 0.0085555575742 
0.0085991342929 0.0086412576695 0.008681878496 0.0087209911152 0.0087585135418 0.0087944176571 0.0088286548653 0.0088611828621 0.0088919665389 
0.0089209685497 0.0089481501699 0.008973463832 0.0089968927814 0.0090182158808 0.0090378156725 0.0090554249354 0.0090710279124 0.009084658358 
0.0090962480655 0.0091058148082 0.0091133508627 0.0091188762091 0.00912234958 0.0091237859131 0.0091231479124 0.0091205343032 0.0091158667093 
0.009109269288 0.0091006076578 0.0090899525666 0.0090773347198 0.0090627475742 0.0090461718574 0.0090276619787 0.0090072278416 0.0089851496632 
0.0089609973875 0.0089350299991 0.008907247335 0.0088777039816 0.0088464381801 0.0088135147439 0.0087789558837 0.0087427959067 0.0087050561683 
0.0086657863845 0.0086250291396 0.0086717101186 0.0087202077311 0.0087672654539 0.0088128508347 0.0088569354944 0.0088994537138 0.0089403543217 
0.0089796110345 0.0090171822328 0.0090530052824 0.0090870767424 0.0091192657484 0.0091496192682 0.0091780558081 0.0092045858998 0.0092291090084 
0.0092516372895 0.0092721210988 0.0092905140165 0.0093068836388 0.0093211460801 0.009333301512 0.0093431578841 0.0093510783621 0.0093568276178 
0.0093604747489 0.0093620017463 0.009361434702 0.0093586996367 0.0093538340966 0.0093468604131 0.0093377749002 0.0093267974781 0.0093135416192 
0.0092982235544 0.0092808561975 0.0092614523953 0.0092400701682 0.009216703745 0.009191444951 0.0091642087528 0.0091351348425 0.0091041982783 
0.0090714954074 0.0090369824411 0.0090007847644 0.0089628877294 0.008923404636 0.0088823083094 0.0088396480653 0.0088896552642 0.0089403945915 
0.0089896589436 0.0090373972797 0.0090835401706 0.009128049256 0.0091708819698 0.0092120320655 0.0092513511105 0.0092888352958 0.0093244704769 
0.0093582190167 0.0093899838551 0.009419768618 0.0094474694601 0.0094731561122 0.0094967691273 0.009518261891 0.0095375907391 0.009554754211 
0.0095697251556 0.0095824256195 0.0095929508962 0.0096012563464 0.0096073718056 0.0096111924421 0.0096126308402 0.0096119924084 0.0096092865085 
0.0096041875206 0.0095968851576 0.009587356007 0.0095756251907 0.0095617219814 0.0095456317263 0.0095274225749 0.009507083793 0.0094846512205 
0.0094601393141 0.0094336031552 0.009405095321 0.00937460627 0.0093421786736 0.0093079373656 0.0092718117491 0.0092338730821 0.0091941908685 
0.0091528162877 0.0091097763546 0.0090651155739 0.0091189051662 0.0091720598007 0.0092236410011 0.0092736216379 0.009322008087 0.0093686343108 
0.00941349621 0.0094565401865 0.0094977269389 0.0095370150188 0.0095742967879 0.0096096271334 0.009642915659 0.0096741296064 0.0097032263402 
0.0097301655049 0.009754916252 0.0097774324635 0.009797632655 0.0098156576057 0.0098311095695 0.009844498802 0.0098556005059 0.0098642889392 
0.0098708085759 0.0098748316902 0.0098765038888 0.0098758298292 0.0098727964236 0.0098674061947 0.0098595717978 0.0098495527661 0.0098372476459 
0.009822629601 0.0098057426758 0.0097866135096 0.0097652443972 0.0097417041551 0.0097157575958 0.0096879266984 0.0096579850891 0.0096260152573 
0.0095920320812 0.0095560679331 0.0095181959584 0.009478448175 0.0094369358051 0.0093935393786 0.009348457576 0.009301651184 0.0093592174538 
0.0094149507678 0.0094689940904 0.0095213869758 0.0095720531452 0.0096209016392 0.0096679195334 0.0097129771493 0.0097561551695 0.0097970858272 
0.0098362243746 0.0098732714754 0.0099081692918 0.0099409167264 0.0099714319915 0.009999617777 0.010025596763 0.010049240213 0.010070531271 
0.010089426208 0.010105974335 0.010120127322 0.010131754063 0.010140918801 0.010147610995 0.010151810348 0.010153549255 0.010152823635 
0.01014961871 0.010143951262 0.010135833414 0.010125275375 0.010112315607 0.010096831564 0.010079086445 0.010059003541 0.010036582385 
0.010011847897 0.0099848609525 0.0099556435285 0.0099242348926 0.0098906784052 0.0098550232204 0.0098173523487 0.009777625643 0.0097359429898 
0.0096923574721 0.009646673994 0.0095994064752 0.0095504670659 0.009611477985 0.0096696043456 0.0097262981507 0.0097812597465 0.0098343733502 
0.0098855526447 0.0099348613298 0.009982171903 0.010027466935 0.010070660079 0.010111699603 0.010150552773 0.010187110381 0.010221483643 
0.010253523442 0.010283204399 0.010310485221 0.010335325671 0.0103578351 0.010377674654 0.010394996818 0.010409771664 0.010421977953 
0.010431590032 0.010438613658 0.010443014 0.010444810239 0.01044401013 0.010440623567 0.010434646131 0.010426086813 0.010414968047 
0.010401313357 0.010385149252 0.010366486098 0.010345398339 0.010321743498 0.01029576833 0.010267416724 0.010236706795 0.010203724206 
0.010168491571 0.010131064521 0.010091473843 0.010049788948 0.010006065743 0.0099603461151 0.0099126910983 0.009863160021 0.0098117576904 
0.0098758961771 0.0099371579761 0.0099965999046 0.010054237317 0.010109978191 0.010163753605 0.010215506039 0.010265168938 0.010312679172 
0.010358024315 0.010401031606 0.010441860746 0.010480343011 0.010516445628 0.010550118873 0.010581377888 0.010610074737 0.010636196489 
0.010659687767 0.010680570034 0.010698767052 0.010714297843 0.010727122219 0.01073720223 0.010744537139 0.010749139459 0.010751011963 
0.010750133648 0.010746532548 0.010740280078 0.010731242656 0.010719498164 0.010705115915 0.010688079255 0.010668405817 0.010646169941 
0.01062137468 0.010594043988 0.010564157179 0.010531908018 0.010497254497 0.010460243741 0.010420925525 0.010379363986 0.010335609007 
0.010289714296 0.010241750306 0.010191766852 0.01013981947 0.010085973342 0.010153631141 0.0102179469 0.010280398352 0.010340916671 
0.010399446465 0.010455910183 0.010510245879 0.01056239139 0.010612192774 0.010659812422 0.010705092906 0.010747992917 0.010788441528 
0.010826455706 0.010861909791 0.010894728583 0.010924854433 0.010952328181 0.010977068789 0.010999010199 0.011018172823 0.011034482081 
0.011047926191 0.011058510816 0.011066274566 0.011071077049 0.011072986907 0.011072016876 0.011068175728 0.011061436535 0.011051875565 
0.011039497689 0.011024284995 0.01100633831 0.010985640129 0.010962220981 0.010936130061 0.010907379625 0.010876027266 0.010842122559 
0.010805688175 0.010766728854 0.010725421699 0.010681738732 0.010635823543 0.010587644827 0.010537300094 0.010484848759 0.010430361323 
0.010373895297 0.010445118727 0.010512677739 0.010578289332 0.010641876294 0.01070336692 0.010762676949 0.010819666262 0.010874465315 
0.010926914777 0.010976972829 0.011024577776 0.01106973352 0.011112301037 0.011152228597 0.011189491716 0.011223998277 0.011255751245 
0.01128467172 0.011310697173 0.011333889361 0.011354040996 0.011371178843 0.011385307119 0.011396404149 0.01140445907 0.011409455444 
0.011411405036 0.01141031549 0.011406213461 0.011399081441 0.011388952143 0.01137585971 0.011359804035 0.01134086558 0.011319050436 
0.011294362785 0.011266881978 0.011236628066 0.011203628904 0.011167949467 0.011129650462 0.011088741336 0.011045319288 0.010999395228 
0.010951125752 0.010900529033 0.010847673494 0.010792621488 0.010735445532 0.010676226961 0.010750983013 0.010821999059 0.010890972583 
0.010957805069 0.011022343652 0.011084720837 0.011144743263 0.011202395583 0.011257547301 0.01131022675 0.01136106979 0.011408553104 
0.011453327118 0.01149535579 0.011534553776 0.011570997065 0.011604429269 0.011634881729 0.011662292301 0.011686618476 0.011707828694 
0.011725881668 0.011740716216 0.011752360723 0.011760806047 0.011766032168 0.011768017689 0.011766857813 0.011762435456 0.011754806683 
0.011744069113 0.011730199987 0.011713282525 0.011693273935 0.011670250453 0.011644245139 0.011615265793 0.011583396057 0.011548664192 
0.011511105793 0.011470787252 0.011427768099 0.011382122355 0.01133388879 0.011283190937 0.011229225751 0.011173718712 0.011115925155 
0.011055869965 0.010993697331 0.011072605144 0.011147288651 0.011219734411 0.011290157888 0.011358166552 0.011423774697 0.011486912243 
0.011547541374 0.011605584952 0.01166102476 0.011713748424 0.011763762693 0.01181086514 0.011855150458 0.011896492531 0.0119348226 
0.011970070579 0.012002186549 0.012031077286 0.012056709573 0.01207902671 0.012098024127 0.012113653105 0.012125900607 0.012134736508 
0.01214017893 0.012142163326 0.012140746995 0.012135980119 0.012127876956 0.012116463515 0.012101766467 0.012083917764 0.012062792706 
0.012038471258 0.012011029549 0.01198049238 0.011946891278 0.011910303075 0.011870759532 0.011828321545 0.011783090361 0.011735069656 
0.011684365401 0.011631039344 0.011575175536 0.011516847293 0.011456134173 0.011393111245 0.011327845227 0.011409127885 0.011487736118 
0.011564108799 0.011638149894 0.011709731045 0.011778792152 0.011845259504 0.011909153908 0.011970297211 0.01202864589 0.012084183377 
0.012136802204 0.012186512275 0.012233192861 0.012276762092 0.012317194319 0.012354394139 0.012388257631 0.01241876498 0.012445801529 
0.012469315497 0.012489304447 0.01250572305 0.01251857572 0.012527816776 0.012533427536 0.012535432721 0.012533844852 0.012528723766 
0.012520074361 0.012507935199 0.012492345874 0.01247334266 0.012450978234 0.012425279473 0.012396430906 0.012364209749 0.012328805657 
0.012290245598 0.012248589077 0.012203916134 0.012156266538 0.012105718039 0.012052373095 0.011996319009 0.011937603074 0.011876322608 
0.011812550326 0.01174635574 0.011677772556 0.011762006871 0.011844791758 0.011925226054 0.012003174455 0.012078654012 0.012151398279 
0.012221402447 0.012288652457 0.012353055447 0.012414554135 0.012473059332 0.012528585683 0.012581020472 0.012630282004 0.012676304566 
0.012718988245 0.012758263949 0.012793969282 0.012826148919 0.012854684592 0.012879494261 0.012900529934 0.012917830665 0.012931311684 
0.012940948629 0.012946721172 0.012948748982 0.012946974526 0.012941448631 0.012932212904 0.012919291064 0.012902743204 0.012882572575 
0.012858892648 0.012831726568 0.012801142596 0.012767161777 0.012729788183 0.012689253121 0.01264532041 0.012598258117 0.012548085742 
0.012494895603 0.012438773215 0.012379805899 0.012318076197 0.012253627633 0.012186602911 0.012117056216 0.012045052071 0.012131775999 
0.012219059951 0.012303825987 0.012385974479 0.012465437399 0.012542119675 0.012615924181 0.012686803141 0.012754697339 0.012819515446 
0.012881262655 0.012939865635 0.012995212096 0.013047233272 0.013095842947 0.013140919741 0.013182377054 0.013220151707 0.013254121713 
0.013284195934 0.013310356513 0.013332564956 0.013350779556 0.013364902904 0.013374941009 0.013380972644 0.01338294719 0.01338095038 
0.0133749789 0.013365083478 0.013351316245 0.013333728304 0.013312394796 0.013287345341 0.013258607717 0.01322625961 0.013190325804 
0.013150890384 0.013108026271 0.013061727011 0.013012241152 0.012959395437 0.01290338646 0.012844286341 0.012782232749 0.012717291025 
0.012649559081 0.012579102537 0.012505993601 0.012430314795 0.012519003686 0.012610961104 0.012700302536 0.012786911834 0.012870688676 
0.012951539443 0.013029380145 0.013104096253 0.013175781547 0.013244205619 0.013309385545 0.01337124595 0.013429704567 0.013484681428 
0.01353603541 0.013583693906 0.013627538917 0.013667462059 0.013703353451 0.013735152907 0.013762757371 0.01378614613 0.013805172543 
0.013820005172 0.013830539439 0.013836831519 0.013838814295 0.013836573175 0.013830126225 0.013819533597 0.013804867368 0.013786187644 
0.013763541412 0.013736973097 0.013706592095 0.013672368739 0.013634419276 0.013592772741 0.013547499976 0.013498709811 0.01344638024 
0.013390421982 0.01333143328 0.013269357401 0.013204039363 0.013135706714 0.013064468343 0.012990364723 0.012913472876 0.012833884001 
0.012923973491 0.013020919077 0.013115153841 0.01320654542 0.013294931912 0.013380219421 0.013462316286 0.013541207387 0.01361679491 
0.013689033617 0.013757302299 0.013822666185 0.013884442151 0.013942581156 0.013996902499 0.014047301772 0.014093677856 0.014135885442 
0.014173798368 0.014207413226 0.014236596078 0.014261209282 0.014281344023 0.014296900072 0.014307882285 0.014314357506 0.014316311837 
0.01431384015 0.014306892206 0.014295564322 0.014279934532 0.01425982673 0.014235807501 0.014207676214 0.014175534651 0.0141393519 
0.014099251235 0.014055257658 0.014007443211 0.013955917629 0.013900753137 0.013842003549 0.013779818463 0.013714258999 0.013645478427 
0.01357421498 0.013499197452 0.013421200361 0.013340288224 0.013256524105 0.013346929632 0.013448655306 0.013548073594 0.01364448821 
0.013737758848 0.013827741524 0.013914447747 0.013997750611 0.014077575697 0.014153884547 0.014226626753 0.014295695289 0.014360994397 
0.014422438952 0.014479890401 0.014533177811 0.014582296597 0.014626955601 0.014667104011 0.014702629303 0.014733388104 0.014759417029 
0.014780625442 0.014796992537 0.014808259836 0.014814951364 0.014816883124 0.014814031621 0.01480656225 0.01479452054 0.014777896196 
0.014756808623 0.014731338389 0.014701543101 0.014667463113 0.014629193511 0.014586761013 0.014540245445 0.014489789968 0.014435375568 
0.01437714377 0.014315191243 0.014249628904 0.014180534576 0.014108048142 0.014032239269 0.01395337242 0.013871232599 0.013785928854 