# vtk DataFile Version 5.1
vtk output
ASCII
DATASET STRUCTURED_POINTS
DIMENSIONS 20 20 20
SPACING 0.005 0.005 0.005
ORIGIN 0.2189 -0.051172 0.02882
POINT_DATA 8000
FIELD FieldData 1
potential 1 8000 double
0.011628315992 0.01219547276 0.012797668545 0.01343750065 0.014117750374 0.014840569046 0.015607978394 0.016421637735 0.017283387928 
0.018195131984 0.019158807467 0.020175669624 0.021246358796 0.022370403121 0.023546733164 0.024773131493 0.026046196322 0.027361852649 
0.028714868884 0.030098486224 0.01125155162 0.011783652448 0.012347058872 0.012944142471 0.013577067031 0.014247848349 0.01495798672 
0.015708602035 0.016501066342 0.017336774449 0.01821698693 0.019142643487 0.020113950104 0.021130259362 0.022190287116 0.023291507727 
0.024430802018 0.025604147298 0.026806993596 0.028033899049 0.010857579986 0.011355840886 0.011881858654 0.012437896353 0.013025820656 
0.013647255805 0.014303368037 0.014995030491 0.015723167401 0.016488588532 0.017292217453 0.01813464236 0.019015887507 0.019935183778 
0.020890958434 0.021880817779 0.022901573786 0.023949483591 0.025020666455 0.026110674419 0.010443676859 0.010908959499 0.011398957661 
0.011915458844 0.012460244897 0.013034632181 0.013639542949 0.01427553173 0.014943238565 0.015643075962 0.016375581432 0.017141189972 
0.017939778264 0.018770452889 0.019631654472 0.020520940686 0.021435113698 0.02237105723 0.023325246874 0.024294167657 0.010016299324 
0.010449772198 0.010905141768 0.011383968823 0.011887587373 0.012417260802 0.012973644847 0.013557193583 0.014168144938 0.014806725549 
0.015473254075 0.01616783514 0.016890338155 0.01763978629 0.018414565252 0.019212478298 0.020030646546 0.020866161585 0.021716041382 
0.022577415377 0.0095877948737 0.0099909819995 0.010413586457 0.010856855085 0.011321884527 0.011809536746 0.012320472216 0.01285497918 
0.013413128792 0.013994986232 0.014600681366 0.015230158945 0.015883027936 0.016558443676 0.017254797556 0.017970049753 0.018701906795 
0.019447762281 0.020204978788 0.020971155725 0.0091710405991 0.0095458112127 0.0099378215987 0.0103479616 0.010777110424 0.011225936347 
0.011694874806 0.012184156692 0.012693834638 0.013223887998 0.013774197063 0.014344645348 0.014934610305 0.015543233686 0.016169114698 
0.016810523517 0.017465505599 0.018131854007 0.018807378075 0.019489720524 0.0087754161045 0.0091237483545 0.009487446826 0.009867121664 
0.010263336789 0.010676598284 0.011107242072 0.011555423876 0.012021165592 0.012504364597 0.013004855411 0.013522297448 0.014055981841 
0.01460511194 0.015168463826 0.015744549116 0.016331694132 0.016928122709 0.01753186691 0.018140881599 0.0084057202018 0.0087297055745 
0.0090673618051 0.0094190927329 0.0097853081723 0.010166309764 0.010562318348 0.01097343227 0.011399646594 0.011840871107 0.012296809908 
0.012767079594 0.013250959108 0.013747567535 0.014255798615 0.014774571669 0.015302312035 0.015837496025 0.016378501494 0.016923469947 
0.0080632957732 0.0083649258041 0.0086787271512 0.0090049917627 0.0093439359067 0.0096957895143 0.010060617999 0.010438516615 0.010829394967 
0.011233160626 0.011649443147 0.012077826594 0.012517676731 0.012968090517 0.013428158116 0.013896755162 0.014372538255 0.014854303272 
0.015340493613 0.015829568451 0.0077476416283 0.008028850258 0.0083208959848 0.008623962414 0.0089382026379 0.0092637163634 0.0096005521386 
0.009948682681 0.01030804025 0.010678398632 0.011059497719 0.011450879963 0.011851871205 0.012261734653 0.012679480401 0.013104200438 
0.013534702033 0.013969921439 0.014408396289 0.014848802854 0.0074575845655 0.0077201548498 0.0079924032151 0.0082744096787 0.0085662885568 
0.0088680763411 0.0091797783599 0.0095013055946 0.009832525934 0.010173228385 0.010523110447 0.010881736868 0.011248509964 0.011622660966 
0.012003354302 0.012389654711 0.012780613137 0.013175078309 0.013571978144 0.013970013889 0.0071918964786 0.0074374831054 0.0076916821823 
0.0079546097683 0.0082262534537 0.008506708026 0.0087958653782 0.0090936094797 0.0093997794799 0.0097141380997 0.010036368137 0.010366084018 
0.010702690788 0.011045476047 0.011393647088 0.011746353169 0.012102635251 0.012461575019 0.012822171622 0.013183340546 0.0069492480877 
0.0071793841133 0.0074172138054 0.0076628070325 0.0079162326519 0.008177432289 0.008446390375 0.0087229038837 0.0090067526261 0.0092977263331 
0.0095954952554 0.0098997155336 0.010209825746 0.010525099011 0.01084478234 0.011168043515 0.011494067525 0.011821969913 0.012150883622 
0.012479852237 0.0067279141941 0.0069439613616 0.0071668776112 0.0073967901398 0.007633731709 0.0078777042555 0.0081285326285 0.0083860673689 
0.0086500414811 0.0089202496919 0.0091964033599 0.0094781408521 0.0097649579827 0.010056165461 0.010350917191 0.010648452832 0.010947978661 
0.011248716913 0.011549931617 0.011850812439 0.0065248858251 0.0067280574158 0.0069373930361 0.007153053319 0.007375105535 0.0076035308552 
0.0078381231695 0.0080786649526 0.0083248957104 0.0085766210753 0.0088336028395 0.0090955047291 0.0093617955121 0.0096318281951 0.0099047600293 
0.01017975259 0.010456047933 0.010732949996 0.011009828231 0.011286046439 0.0063351259353 0.0065264489882 0.0067233311883 0.0069259726373 
0.0071344813529 0.0073488045394 0.007568718727 0.0077939376232 0.0080242457858 0.0082594040233 0.0084992594956 0.0087434543996 0.0089915030142 
0.0092427226005 0.0094962792755 0.0097513385017 0.010007082015 0.010262919176 0.010518301421 0.010772725083 0.0061513848862 0.0063317070433 
0.0065170328688 0.0067076384874 0.0069036327488 0.0071049845024 0.0073114274664 0.0075226875874 0.0077384586217 0.0079585858101 0.0081828570325 
0.0084109462625 0.0086423920983 0.0088765251316 0.0091125296916 0.0093495492104 0.0095868323257 0.0098237588415 0.010059923634 0.010294807483 
0.005965702713 0.0061356045887 0.0063100483355 0.0064893060319 0.0066735172562 0.0068626421312 0.0070564725461 0.0072546732121 0.0074569548894 
0.0076630744462 0.0078728381892 0.0080859004202 0.0083018272724 0.008519975453 0.0087395901982 0.008959896607 0.0091801672918 0.0093998230547 
0.0096184152112 0.0098355224246 0.0057719790314 0.0059318719192 0.0060958536524 0.0062642212321 0.0064371181629 0.0066145193627 0.0067962411033 
0.006981962632 0.0071713616264 0.0073641231891 0.0075599793612 0.0077586415764 0.0079596860091 0.0081625297884 0.0083665291233 0.0085709682868 
0.0087752123354 0.0089786790924 0.009180922659 0.0093815075144 0.013301403691 0.013946418281 0.014630689476 0.015356839001 0.016127491954 
0.016945085853 0.017811971055 0.018730140453 0.019701603 0.020728273046 0.021811594394 0.022952792042 0.024152170027 0.025409300246 
0.026722708596 0.028089954401 0.029507549167 0.030970626187 0.032473441268 0.034008909991 0.012847129448 0.013451537287 0.014091007791 
0.014767886189 0.015484197033 0.016242106885 0.017043236569 0.01788924914 0.01878152862 0.019721379877 0.020709925432 0.02174774749 
0.022834776497 0.023970304916 0.025152662935 0.026379501381 0.027647404425 0.02895199117 0.030288175831 0.031650022551 0.012389500952 
0.012955183167 0.01355216526 0.014182406573 0.014847757561 0.015549671989 0.016289718363 0.017068949188 0.01788841025 0.018748938744 
0.01965117944 0.020595500922 0.021581558312 0.022608365251 0.023674375445 0.024776998175 0.025913178203 0.027078950485 0.028269944401 
0.029481063516 0.011926914545 0.012455581001 0.013012157954 0.013598248017 0.014215386432 0.01486487056 0.015547818189 0.016264953417 
0.017017020182 0.017804530277 0.018627825746 0.019486924367 0.020381515331 0.021310403286 0.02227196302 0.023263889705 0.024283033962 
0.02532612589 0.026389318228 0.02746831664 0.011462578302 0.011955967346 0.01247418954 0.01301859024 0.013590368972 0.01419062558 
0.014820167922 0.015479580652 0.016169258333 0.016889477341 0.017640376479 0.018421736796 0.019233095507 0.020073393498 0.020940832425 
0.021833395027 0.022748239783 0.023682420225 0.024632517025 0.025594983206 0.011003109449 0.011463089766 0.011945171429 0.012450405422 
0.012979762545 0.013534049575 0.014113952347 0.014719819706 0.015351921643 0.016010277163 0.016694915593 0.017405448856 0.018141322653 
0.018901435097 0.019684216734 0.020487619089 0.021309330968 0.022146652205 0.02299662108 0.023856172963 0.010555994156 0.010984584061 
0.011432826985 0.011901537041 0.012391448943 0.012903196559 0.013437238726 0.013993843907 0.01457310292 0.015174971388 0.015799267375 
0.016445572503 0.01711321389 0.017801171603 0.018507973125 0.019231806798 0.019970518172 0.020721914458 0.021483383856 0.022252231692 
0.010127431128 0.010526731101 0.010943524044 0.011378429458 0.011831946606 0.012304540035 0.012796513058 0.013308056863 0.013839172539 
0.0143897291 0.014959494196 0.015547950432 0.016154268215 0.016777571052 0.017416526276 0.018069511938 0.018734672769 0.01941008203 
0.020093472602 0.020782454665 0.0097214172804 0.010093544315 0.010481258536 0.010884981103 0.011305072135 0.011741861974 0.012195498149 
0.012666111573 0.013153602378 0.013657853423 0.014178450976 0.014714928143 0.015266548907 0.015832275297 0.016410893504 0.017001180728 
0.017601351091 0.018209678893 0.018824307558 0.019443079122 0.0093397326931 0.0096867994941 0.010047731898 0.010422833965 0.010812357404 
0.011216482027 0.011635315625 0.012068872799 0.012517026649 0.01297957175 0.013456120511 0.013946141525 0.014448855039 0.014963450239 
0.015488721803 0.016023523961 0.016566468748 0.017115727068 0.017669847454 0.018226945651 0.0089828096215 0.0093068258729 0.0096431558374 
0.0099920634075 0.010353672047 0.010728109306 0.011115393765 0.011515469709 0.011928172628 0.012353244478 0.012790344226 0.013238902391 
0.013698191675 0.014167391197 0.014645478225 0.015131340185 0.015623669083 0.016121124986 0.016622142306 0.017125123437 0.0086501278674 
0.0089529283398 0.0092667539383 0.0095917041322 0.0099278905789 0.010275377453 0.010634106235 0.011003984861 0.011384815604 0.011776326523 
0.012178137732 0.01258971139 0.013010376155 0.013439330527 0.013875646555 0.014318261258 0.014766055341 0.015217775088 0.015672117404 
0.016127636234 0.0083406601702 0.0086240352607 0.0089172102739 0.009220309919 0.009533359216 0.0098563637812 0.010189286894 0.010531959256 
0.010884157999 0.011245591049 0.011615859338 0.011994487034 0.012380813836 0.012774089615 0.013173425316 0.013577865213 0.013986404451 
0.014397863844 0.014811126107 0.015224895195 0.0080530291186 0.0083185680243 0.0085928689955 0.008875999114 0.0091680096413 0.0094688268774 
0.0097783982308 0.010096524662 0.010422990467 0.010757467572 0.011099579964 0.011448821911 0.011804645317 0.012166281148 0.012532894612 
0.012903603173 0.013277465354 0.013653464192 0.014030538668 0.014407618205 0.0077852315721 0.0080344092433 0.0082914147187 0.0085563295907 
0.0088291533718 0.0091098637558 0.0093982951206 0.0096942896887 0.009997580849 0.010307864534 0.010624778563 0.010947837803 0.011276498966 
0.011610062811 0.011947688195 0.01228852858 0.012631732486 0.012976370827 0.013321545663 0.013666269982 0.0075344085745 0.0077685293751 
0.0080096473726 0.0082578705218 0.0085132052282 0.0087756047325 0.0090448844521 0.0093208443895 0.0096032301678 0.0098917406358 0.010186046812 
0.01048568707 0.010790092925 0.011098609375 0.011410450586 0.011724787761 0.012040789369 0.012357653776 0.012674543366 0.012990619347 
0.0072965713451 0.0075167584953 0.007743241482 0.0079761130725 0.0082153957172 0.0084610388999 0.0087128482455 0.0089705944352 0.0092340194948 
0.0095028491871 0.0097767189612 0.010055235371 0.010337846007 0.010623874179 0.010912605076 0.011203227447 0.011494948679 0.011787008321 
0.01207869032 0.012369264923 0.0070668348998 0.0072740500671 0.007486923925 0.0077055687588 0.0079300093558 0.0081601956377 0.0083959271701 
0.0086369641658 0.0088830266083 0.0091338423687 0.0093890980867 0.0096483515161 0.0099111075062 0.010176707063 0.010444475157 0.010713624589 
0.010983428869 0.011253160423 0.011522196007 0.011789815256 0.0068403220156 0.0070353441848 0.0072354465643 0.007440760542 0.0076513305537 
0.0078670758335 0.0080878398757 0.0083133582501 0.0085433450742 0.008777479824 0.0090154926596 0.0092569361819 0.009501356178 0.0097481387042 
0.0099966057336 0.010246063045 0.010495826514 0.010745220816 0.010993644003 0.011240463589 0.0066133456579 0.0067968056959 0.006984836685 
0.0071775582634 0.0073750231068 0.0075771602222 0.0077838133221 0.0079947253917 0.0082095874317 0.008428113919 0.0086499315322 0.008874688629 
0.0091019296358 0.0093311053979 0.0095615958354 0.0097927525911 0.010023957347 0.010254583681 0.010484041054 0.010711755846 0.014935632378 
0.015653656778 0.016414651006 0.017221328411 0.018076157711 0.018981872255 0.019940734486 0.020955029838 0.022026812761 0.023157851177 
0.02434955984 0.02560274254 0.026917582367 0.028293308811 0.029728536249 0.031220225031 0.032764693868 0.034356655191 0.035989852609 
0.03765676839 0.014414034194 0.015086618776 0.015797661753 0.016549433339 0.017344032175 0.018183459678 0.019069633519 0.020004270122 
0.020988779075 0.022024414346 0.023112134337 0.024252253872 0.025444556337 0.026688088678 0.027980997624 0.029320771024 0.030703680188 
0.032125113508 0.033579518992 0.035060535698 0.013897892953 0.014527472198 0.015191469566 0.01589161916 0.016629841143 0.017407628353 
0.018226515167 0.01908768793 0.019992241654 0.020940952292 0.02193431956 0.02297245862 0.024054852486 0.025180350509 0.026347128902 
0.027552657617 0.028793452316 0.030065583569 0.031364141532 0.032683655532 0.013386197186 0.013974997078 0.01459449796 0.01524621963 
0.01593156652 0.016651941107 0.017408344792 0.01820171314 0.019032705998 0.019901887806 0.020809412921 0.021755121021 0.022738420538 
0.023758020531 0.024812114807 0.025898354827 0.027013560814 0.028154098619 0.029315774798 0.030493963257 0.012880611644 0.013430782891 
0.014008347137 0.014614534948 0.015250487003 0.015917239089 0.016615630569 0.017346287971 0.018109669413 0.018906000413 0.019735237411 
0.020597040968 0.02149069088 0.022414992967 0.023368151713 0.024347844244 0.025351379635 0.026375451903 0.027416423332 0.028470297509 
0.012384761351 0.01289853187 0.013436687619 0.014000231037 0.014590089931 0.015207012001 0.015851677586 0.016524475565 0.017225645357 
0.01795524604 0.018713074236 0.01949871943 0.020311343581 0.021149791364 0.022012301493 0.022896816802 0.023800884376 0.024721561311 
0.02565581175 0.026600002913 0.011903121419 0.012382635286 0.012883922885 0.01340773243 0.013954740782 0.01452556196 0.015120597512 
0.015740156978 0.016384304951 0.017053003321 0.017745914179 0.018462490794 0.019201917974 0.019963027897 0.020744313848 0.021543813584 
0.022359292441 0.02318825813 0.024027964025 0.024875339104 0.011439658025 0.011887204112 0.012354137807 0.01284102568 0.01334841517 
0.013876686808 0.01442610766 0.014996895686 0.015588977718 0.016202224599 0.01683624044 0.017490463863 0.018163984973 0.018855675211 
0.019564195229 0.020287843347 0.021024538569 0.021772102477 0.022528135823 0.023289962265 0.010997341182 0.011415120497 0.01185017305 
0.012302931699 0.012773758078 0.013262929005 0.013770624846 0.014296866357 0.014841590881 0.015404524461 0.015985283071 0.016583232478 
0.017197544607 0.017827138573 0.018470755424 0.019126735963 0.019793506764 0.020468917148 0.021150924296 0.021837203013 0.010577768253 
0.010967969489 0.011373542461 0.011794822253 0.012232046449 0.012685399193 0.013154939465 0.013640644697 0.01414236361 0.014659791357 
0.015192545427 0.015739888214 0.016301095367 0.016875159449 0.017460817139 0.018056762798 0.018661405213 0.019272982063 0.019889586394 
0.02050907972 0.010181588 0.010546270441 0.010924673757 0.011316973747 0.011723388729 0.012143984265 0.012578762908 0.013027638207 
0.01349039525 0.013966717891 0.014456157447 0.014958093687 0.015471755102 0.015996183884 0.016530290439 0.017072832359 0.017622374555 
0.018177352105 0.018736119317 0.019296823915 0.009808569688 0.010149670881 0.010503021929 0.01086874128 0.011246940724 0.01163762448 
0.012040759119 0.012456201958 0.012883708769 0.013322945478 0.013773437291 0.014234614082 0.014705705161 0.015185839253 0.015674007533 
0.016169053026 0.016669703366 0.017174547351 0.017682148451 0.018190875349 0.0094578681053 0.0097772491901 0.010107558564 0.010448866436 
0.010801234124 0.011164618299 0.01153896952 0.011924082836 0.012319707351 0.012725491695 0.013140952803 0.013565533213 0.013998547529 
0.014439139946 0.014886382453 0.01533919 0.015796453352 0.016256882171 0.016719175648 0.017181883471 0.0091281930932 0.0094275515676 
0.0097366539132 0.010055572667 0.010384306327 0.010722816796 0.011070934863 0.011428533131 0.011795302128 0.012170893971 0.012554851184 
0.012946575827 0.013345480225 0.0137507495 0.014161472769 0.014576706456 0.014995382956 0.01541637879 0.015838522678 0.016260549087 
0.0088176903964 0.0090985701176 0.0093881614706 0.0096865110138 0.0099936000458 0.010309364554 0.010633640286 0.010966232954 0.011306867212 
0.01165516508 0.012010707047 0.012372940845 0.012741224793 0.013114872512 0.013492988888 0.013874693805 0.014259016419 0.014644936441 
0.015031399636 0.015417297616 0.0085239029804 0.0087876936042 0.0090592825066 0.0093387057372 0.0096259335654 0.0099208898331 0.010223400106 
0.010533230119 0.010850120157 0.011173705731 0.011503561508 0.011839182605 0.012179949902 0.012525177253 0.012874082401 0.013225781196 
0.013579413162 0.013934038681 0.014288705784 0.01464241695 0.0082437555137 0.008491700966 0.0087466284635 0.0090085732306 0.0092775147981 
0.0095533538015 0.0098359143205 0.010124960894 0.010420193811 0.010721286793 0.011027834612 0.011339318116 0.011655198715 0.011974789164 
0.012297350706 0.012622076106 0.012948136146 0.0132746938 0.013600871784 0.01392578507 0.0079738230712 0.008206999637 0.0084464416383 
0.0086921781824 0.0089441835917 0.00920236572 0.0094665490513 0.0097364660261 0.010011840058 0.010292327023 0.010577565703 0.010867053106 
0.011160255318 0.011456535577 0.011755182772 0.012055445155 0.012356585471 0.012657810858 0.012958326323 0.013257310205 0.0077108973353 
0.0079302398532 0.0081551961099 0.0083858000339 0.0086220344371 0.0088637862098 0.0091108893094 0.0093631052062 0.0096201267759 0.0098816056821 
0.010147187351 0.010416422387 0.010688786419 0.010963682678 0.01124045816 0.011518399728 0.01179682378 0.012075007398 0.012352233805 
0.012627735595 0.0074525195148 0.0076588320544 0.007870184407 0.0080865951171 0.0083080487023 0.0085344362571 0.0087655967303 0.0090012834725 
0.0092411944618 0.009485015319 0.009732336469 0.0099827853546 0.010235830956 0.010490957995 0.010747539789 0.011004948215 0.011262512067 
0.011519584488 0.01177549742 0.012029553249 0.01652080629 0.017306604365 0.018138555472 0.019019321356 0.019951553929 0.020937795378 
0.021980395494 0.023081732904 0.024243724903 0.025468027004 0.026755975642 0.028108098637 0.029524305947 0.031003698155 0.032544331502 
0.034143223964 0.035796213541 0.037497734423 0.039241118035 0.041018509901 0.015939671379 0.016675927341 0.017453532531 0.018274709138 
0.019141615948 0.020056158277 0.021020414183 0.022035904277 0.023104192964 0.02422634802 0.025403137078 0.026634763061 0.027920792325 
0.02925999713 0.030650380971 0.032089013395 0.033572139537 0.035094827501 0.036651172266 0.038234395859 0.015369817355 0.016059288436 
0.016785787663 0.017551089055 0.018356956888 0.019205082486 0.020096718479 0.021033271714 0.022015715347 0.023044772267 0.024120794603 
0.025243663986 0.026412778108 0.027626722107 0.028883503317 0.030180431694 0.031513826398 0.032879482938 0.03427221364 0.035686231418 
0.014810605844 0.015455879843 0.01613426355 0.016847217739 0.0175961386 0.018382311972 0.019206861449 0.020070673344 0.020974353996 
0.02191837072 0.02290278261 0.023927264305 0.024990995089 0.026092675354 0.027230244279 0.028401096044 0.0296020603 0.030829224919 
0.032078161012 0.033343807844 0.014262897006 0.014866466751 0.015499618672 0.016163541846 0.016859341783 0.017587984544 0.018350355737 
0.019147031678 0.019978430859 0.020844702926 0.021745780463 0.022681071562 0.023649718812 0.024650392665 0.025681174932 0.026739611799 
0.027822883357 0.028927444641 0.030049506872 0.031184607328 0.013728787565 0.01429308891 0.0148838159 0.015501895885 0.016148203654 
0.016823492222 0.017528327954 0.018263177219 0.019028206767 0.01982341244 0.020648479795 0.021502874204 0.022385660142 0.023295427135 
0.024230454715 0.025188504572 0.026166945246 0.027162702866 0.028172394298 0.029192224882 0.013210882864 0.013738323338 0.014289351074 
0.014864705293 0.015465043926 0.016090885712 0.016742665651 0.017420625206 0.018124813079 0.01885510518 0.019611147903 0.020392207141 
0.021197323227 0.02202526629 0.022874347756 0.023742609317 0.024627560261 0.02552655724 0.026436659884 0.027354508359 0.012711796556 
0.013204742141 0.013718752215 0.014254364422 0.014812068984 0.015392269589 0.015995198666 0.016620957077 0.017269522456 0.017940655924 
0.018633891962 0.019348553485 0.020083689438 0.020838018255 0.02161000195 0.022397934192 0.023199559926 0.02401253993 0.024834206875 
0.025661728378 0.012233513953 0.01269431031 0.013173887033 0.013672657347 0.014190971336 0.014729079724 0.015287121812 0.015865111243 
0.016462920755 0.017080197313 0.017716531497 0.018371117566 0.019043076322 0.019731260101 0.020434239294 0.021150370287 0.021877729296 
0.022614144478 0.023357329933 0.024104761054 0.011777297144 0.012208190632 0.012655815121 0.013120504432 0.013602488058 0.014101909003 
0.014618811215 0.015153139293 0.015704667868 0.016273035784 0.016857779102 0.017458162503 0.018073292352 0.018702074445 0.019343199872 
0.019995172013 0.020656316277 0.021324677275 0.021998225058 0.022674681753 0.011343697467 0.0117468208 0.012164911193 0.012598124948 
0.013046654345 0.013510544573 0.01398979342 0.014484263553 0.014993699351 0.015517712888 0.016055780506 0.016607235776 0.017171203381 
0.017746671171 0.018332408157 0.018927088866 0.019529204557 0.020136962837 0.020748596762 0.021362095403 0.010932560826 0.011309962169 
0.011700688828 0.012104907107 0.012522672824 0.012954002755 0.013398823028 0.013856949884 0.014328113287 0.014811902628 0.015307774943 
0.015815105456 0.016333055539 0.016860663727 0.017396834908 0.017940308808 0.018489735249 0.019043551635 0.019600137153 0.020157730582 
0.01054319998 0.010896772321 0.011262257081 0.011639731669 0.01202924928 0.01243071417 0.012844057159 0.013269077619 0.013705443656 
0.014152750032 0.014610500941 0.015078009479 0.015554552534 0.016039220543 0.016530979409 0.017028683489 0.017531092184 0.018036832764 
0.01854445862 0.019052376807 0.010174458042 0.010505977923 0.010848141412 0.011200990415 0.011564522878 0.011938659573 0.012323220116 
0.012718029086 0.013122759241 0.013536982042 0.013960211302 0.014391801795 0.01483105638 0.015277133361 0.01572907015 0.016185804289 
0.016646193525 0.017109051783 0.017573040495 0.018036760128 0.0098247239227 0.010135817814 0.010456430775 0.0107865797 0.011126225706 
0.01147526805 0.011833530879 0.012200773373 0.012576692624 0.01296087565 0.013352834104 0.013751962992 0.014157568871 0.014568900902 
0.014985057856 0.015405050881 0.015827857901 0.016252350384 0.016677364737 0.01710164471 0.0094919654047 0.0097841222491 0.010084795645 
0.010393980431 0.010711629216 0.011037614842 0.011371765385 0.011713814429 0.012063458288 0.012420292267 0.012783869921 0.013153582021 
0.013528801226 0.013908755859 0.014292667113 0.014679639534 0.015068678559 0.015458785786 0.015848903812 0.016237922502 0.009173814636 
0.0094483729888 0.0097305477994 0.010020336656 0.010317666529 0.010622422759 0.010934411496 0.011253374865 0.011578973772 0.011910850255 
0.012248530147 0.012591502763 0.01293911635 0.013290689495 0.013645463364 0.014002591956 0.014361208022 0.014720363203 0.015079108896 
0.015436461062 0.0088678016796 0.0091259437997 0.009390908 0.0096626898851 0.0099412081993 0.010226323026 0.01051786427 0.010815549865 
0.011119079028 0.01142805146 0.011742067073 0.012060595719 0.012383056936 0.01270879486 0.013037074524 0.013367147613 0.013698200022 
0.014029392119 0.014359822339 0.014688602707 0.0085716079163 0.0088143960553 0.0090633041569 0.0093182905376 0.0095793024168 0.0098461921871 
0.010118779877 0.010396800709 0.01067994719 0.010967841853 0.011260053506 0.011556141065 0.01185552701 0.012157608512 0.012461707576 
0.012767104335 0.013073075532 0.013378837453 0.013683579958 0.013986501609 0.0082834798391 0.0085118531288 0.0087457136202 0.0089850182063 
0.0092296903198 0.0094795958418 0.0097345505897 0.0099942946113 0.010258531767 0.010526886233 0.010798982976 0.0110743403 0.01135245978 
0.011632767312 0.011914652585 0.012197449909 0.012480468199 0.012763017362 0.013044349407 0.013323708892 0.018049245037 0.018897273054 
0.019794105912 0.020742333842 0.021744619992 0.022803359294 0.023921065055 0.025099844749 0.026341613008 0.027647831988 0.029019585296 
0.030457292242 0.031960584053 0.033528215435 0.035158048857 0.036846746131 0.038589888053 0.040381777323 0.042215408132 0.044082592529 
0.017415136099 0.018210171855 0.019048952563 0.019933647299 0.020866409862 0.021849253942 0.022883894243 0.023972099666 0.025115172062 
0.026314122637 0.02756947973 0.028881306577 0.030248970012 0.031670973917 0.033145153311 0.034668366301 0.036236461166 0.03784443631 
0.039486091952 0.04115442146 0.016796244107 0.017541228601 0.018325441701 0.019150650441 0.020018547538 0.020930747631 0.021888659406 
0.022893434345 0.023945995412 0.025047014456 0.026196647296 0.027394659445 0.02864016116 0.029931744484 0.031267077083 0.032643257309 
0.034056554922 0.035502383762 0.036975441918 0.038469666422 0.016192167255 0.016889941932 0.017622865395 0.018392360199 0.019199791843 
0.020046343326 0.020933143074 0.021861037469 0.022830634202 0.023842151858 0.024895590062 0.025990507268 0.027125892245 0.028300231771 
0.029511426503 0.030756641165 0.032032532323 0.033335009635 0.034659420911 0.036000471014 0.015603373093 0.016256688321 0.016941466384 
0.017658808766 0.018409835037 0.01919548092 0.020016489798 0.020873508714 0.021766850949 0.022696576438 0.02366246126 0.024663920144 
0.025699819919 0.026768705634 0.027868567198 0.028996831425 0.030150382492 0.03132567663 0.032518556173 0.033724472494 0.015031118581 
0.015642600815 0.016282222901 0.016950874017 0.017649391653 0.018378488125 0.019138712248 0.019930429402 0.020753790474 0.021608739976 
0.022494835445 0.023411352565 0.024357328693 0.025331196988 0.026331126926 0.02735473399 0.028399227444 0.029461383799 0.030537618334 
0.031623961337 0.014476975476 0.015049180411 0.015646551783 0.016269771666 0.016919502002 0.017596212197 0.018300287804 0.019031919781 
0.019791134125 0.020577687111 0.021391124505 0.022230700335 0.023095306441 0.023983506711 0.024893611726 0.025823465786 0.026770494169 
0.027731881435 0.028704460929 0.02968473547 0.013942544566 0.014477999414 0.015035920623 0.015616866841 0.016221292925 0.016849549288 
0.017501873808 0.018178295357 0.018878739294 0.019602868349 0.020350187502 0.021119872245 0.021910921093 0.022721949689 0.0235513559 
0.024397088825 0.025257059215 0.02612858743 0.027008872154 0.027894929434 0.013429180721 0.013930297847 0.014451478992 0.01499314709 
0.015555625233 0.016139140586 0.016743801082 0.017369564171 0.018016229515 0.018683420592 0.019370617776 0.020076993542 0.020801526043 
0.021542959219 0.022299781695 0.023070214887 0.023852269906 0.024643650581 0.025441750334 0.026243992099 0.012937744565 0.013406828893 
0.013893856756 0.014399095984 0.014922787018 0.015465057585 0.016025910349 0.016605226961 0.017202761405 0.017818087114 0.018450626445 
0.019099614017 0.019764059717 0.020442800647 0.021134416892 0.021837301991 0.022549624166 0.023269363098 0.023994302818 0.024722066077 
0.012468604983 0.012907875267 0.01336318309 0.013834726757 0.014322609755 0.014826883359 0.015347507283 0.015884300747 0.016436964335 
0.01700505857 0.017587988916 0.018185014001 0.018795203565 0.019417423754 0.02005039624 0.020692686766 0.021342603264 0.021998356978 
0.022657975727 0.023319331816 0.012021581291 0.012433155451 0.01285906083 0.013299395961 0.01375425532 0.014223577408 0.014707295912 
0.015205176949 0.015716897622 0.016242012497 0.016779911807 0.01732986386 0.017891030395 0.018462346946 0.019042620774 0.019630500411 
0.020224543352 0.020823112384 0.021424403496 0.022026533663 0.011596086169 0.011981929079 0.012380578942 0.012792097195 0.013216487718 
0.013653703825 0.01410353999 0.014565819682 0.015040178821 0.015526159556 0.016023176541 0.016530514005 0.017047370516 0.017572790503 
0.01810563571 0.018644708375 0.019188633893 0.019735997667 0.020285183046 0.020834507012 0.011191100967 0.011553057468 0.011926464955 
0.012311339795 0.012707650251 0.013115303661 0.013534100899 0.013963797845 0.014404042556 0.014854387161 0.01531425442 0.015782986495 
0.0162597609 0.016743746537 0.017233891093 0.017729064213 0.01822802479 0.018729501197 0.019232039641 0.019734156008 0.01080527374 
0.011145041366 0.011495049342 0.011855290046 0.012225695971 0.012606154668 0.012996450048 0.013396306096 0.013805385115 0.014223249012 
0.014649328471 0.015082999842 0.015523508792 0.01597003412 0.01642163743 0.016877273081 0.017335834755 0.017796100914 0.018256845985 
0.018716672443 0.010436935995 0.010756076114 0.011084380738 0.011421822322 0.011768305326 0.012123703509 0.01248779922 0.012860303002 
0.013240862936 0.013629057138 0.014024353593 0.014426153581 0.014833754276 0.015246360085 0.015663111583 0.016083063035 0.016505183811 
0.016928406005 0.0173515473 0.017773423119 0.010084224736 0.01038416458 0.010692304237 0.011008603105 0.011332959706 0.011665222803 
0.012005192425 0.012352550542 0.012706950982 0.013067992149 0.013435178685 0.013807922489 0.014185560105 0.014567367722 0.014952513513 
0.015340160342 0.015729359282 0.016119124635 0.016508385301 0.016896102541 0.0097452632131 0.010027288299 0.010316661715 0.010613317624 
0.010917156566 0.011228006971 0.011545668941 0.011869863032 0.012200218015 0.012536325628 0.012877740426 0.013223908683 0.013574197817 
0.01392793193 0.014284356346 0.014642659871 0.015001998707 0.01536146554 0.015720113437 0.016076951206 0.0094182990834 0.00968357673 