# vtk DataFile Version 5.1
vtk output
ASCII
DATASET STRUCTURED_POINTS
DIMENSIONS 50 50 50
SPACING 0.002 0.002 0.002
ORIGIN 0.2174 -0.052672 0.02732
POINT_DATA 125000
FIELD FieldData 1
potential 1 125000 double
0.00041323232149 0.00041134252337 0.00040947139046 0.00040761803764 0.00040578306371 0.00040396668807 0.00040217165124 0.0004003984809 0.00039864815276 
0.00039692108011 0.00039521937299 0.00039354230748 0.00039188892273 0.00039025809858 0.00038864799825 0.00038705740518 0.00038548023664 0.00038391563992 
0.00038235974956 0.000380811399 0.00037926865558 0.00037772983471 0.00037619506444 0.00037466422885 0.00037313782975 0.00037161725376 0.00037010392385 
0.00036859906865 0.00036710446935 0.000365621701 0.00036415189377 0.00036269606926 0.00036125526176 0.00035982994593 0.00035842041874 0.00035702643372 
0.00035564847119 0.00035428629072 0.00035294075513 0.00035161153243 0.00035029988635 0.00034900612891 0.00034773016649 0.00034647217245 0.00034523315546 
0.00034401122301 0.00034280598525 0.00034161564593 0.00034043855254 0.00033927376594 0.00041531004988 0.00041339963478 0.00041150858723 0.00040963579822 
0.00040778166985 0.00040594764963 0.00040413529412 0.00040234588402 0.00040057878018 0.00039883741049 0.000397121005 0.0003954297432 0.00039376227006 
0.00039211822424 0.00039049444435 0.0003888906533 0.0003873004645 0.00038572271722 0.00038415426571 0.00038259298198 0.00038103777824 0.00037948681589 
0.00037793993019 0.00037639734397 0.00037485951916 0.00037332801584 0.00037180377779 0.00037028860355 0.00036878417511 0.00036729172967 0.00036581275402 
0.00036434798986 0.00036289836639 0.00036146415488 0.00036004624318 0.00035864370489 0.00035725685557 0.00035588579107 0.00035453116356 0.00035319308594 
0.00035187283315 0.00035057037154 0.00034928617319 0.00034802021244 0.00034677283274 0.0003455431661 0.00034433034008 0.00034313254764 0.00034194882242 
0.00034077692765 0.00041720304192 0.00041527249302 0.00041336169801 0.00041147023607 0.00040959908139 0.00040774781611 0.00040591951477 0.00040411497137 
0.00040233341827 0.00040057820708 0.00039884841173 0.00039714364397 0.00039546375866 0.0003938065522 0.00039217027394 0.00039055207826 0.00038895094553 
0.00038736059842 0.00038577976392 0.00038420665254 0.00038263931573 0.00038107685762 0.00037951885604 0.00037796537044 0.0003764171661 0.00037487534755 
0.00037334155594 0.00037181715181 0.00037030388155 0.0003688033335 0.00036731642792 0.00036584386031 0.00036438649368 0.00036294472122 0.00036151860527 
0.00036010845767 0.00035871347357 0.00035733455688 0.00035597132111 0.00035462490023 0.00035329574781 0.00035198519697 0.00035069253162 0.0003494180192 
0.00034816218475 0.000346924204 0.00034570339721 0.00034449740148 0.00034330573026 0.00034212627152 0.0004188679779 0.00041691899396 0.00041498950718 
0.00041308109195 0.0004111937468 0.00040932699228 0.00040748416287 0.00040566558245 0.00040387110351 0.00040210319675 0.00040036141094 0.00039864501291 
0.00039695352434 0.0003952844436 0.00039363659266 0.00039200690895 0.00039039242485 0.0003887922175 0.00038719991861 0.0003856155741 0.00038403696366 
0.00038246372163 0.00038089527775 0.00037933171877 0.00037777413733 0.00037622336675 0.00037468108201 0.00037314893092 0.00037162834833 0.00037012056784 
0.00036862675154 0.0003671479406 0.00036568421129 0.00036423581795 0.00036280299028 0.00036138542315 0.00035998347091 0.00035859668072 0.00035722595023 
0.00035587143633 0.00035453429697 0.00035321534625 0.00035191416632 0.00035063076788 0.0003493661243 0.00034811950227 0.00034689019489 0.00034567622374 
0.00034447647389 0.00034328895921 0.00042027126592 0.00041830506391 0.00041635984265 0.00041443549086 0.00041253316534 0.00041065348255 0.00040879690146 
0.00040696540175 0.00040516041622 0.00040338134251 0.00040162901333 0.00039990220782 0.00039820049198 0.00039652137074 0.00039486311194 0.00039322305364 
0.0003915980934 0.00038998579617 0.00038838467887 0.00038678984504 0.00038520139029 0.00038361841329 0.0003820404059 0.00038046800116 0.00037890181548 
0.00037734328044 0.00037579394159 0.00037425503899 0.00037272831469 0.00037121493816 0.00036971573845 0.00036823144854 0.00036676240824 0.00036530874685 
0.00036387013314 0.00036244616099 0.00036103809351 0.00035964462391 0.000358266924 0.0003569047002 0.00035556017237 0.00035423288131 0.00035292325405 
0.00035163186979 0.00035035848742 0.0003491031884 0.00034786487736 0.00034664280018 0.0003454344391 0.00034423877994 0.00042139114572 0.00041941009625 
0.00041745024425 0.00041551201644 0.00041359646972 0.00041170481627 0.0004098370347 0.00040799490557 0.00040617990235 0.00040439176129 0.00040263027416 
0.00040089501612 0.00039918461208 0.00039749696143 0.00039582945281 0.00039418037142 0.00039254653838 0.00039092484557 0.00038931301908 0.00038771058149 
0.00038611350985 0.00038452169733 0.00038293526014 0.0003813550855 0.00037978169169 0.00037821609519 0.0003766607358 0.0003751166419 0.00037358501294 
0.00037206721823 0.00037056381159 0.00036907552591 0.00036760244039 0.00036614433063 0.00036470096307 0.00036327251049 0.00036185868919 0.00036045959934 
0.0003590750489 0.00035770604446 0.00035635404319 0.00035501896552 0.0003537014273 0.00035240192347 0.00035112031115 0.00034985667898 0.00034860984664 
0.00034737949743 0.00034616299611 0.00034495936762 0.00042221881948 0.00042022490459 0.00041825223194 0.00041630205489 0.0004143752249 0.00041247325195 
0.00041059523614 0.00040874525665 0.00040692219847 0.00040512657955 0.00040335793488 0.00040161571807 0.00039989797103 0.0003982031172 0.00039652862236 
0.00039487175395 0.00039323018584 0.00039160077357 0.00038998079365 0.00038836892516 0.00038676587676 0.0003851663371 0.00038357282429 0.00038198584425 
0.00038040631165 0.00037883527367 0.00037727499121 0.00037572630616 0.00037419104331 0.0003726699353 0.0003711634668 0.00036967256522 0.00036819617435 
0.00036673501036 0.00036528828557 0.00036385585602 0.00036243725476 0.00036103325524 0.00035964305649 0.00035826785376 0.00035690899285 0.00035556651178 
0.00035424150502 0.00035293405606 0.00035164488458 0.00035037317159 0.00034911832395 0.00034788005202 0.00034665575147 0.00034544502647 0.00042275983683 
0.00042075427702 0.00041877111745 0.00041681108107 0.00041487520069 0.00041296476202 0.0004110786481 0.00040922211252 0.0004073929552 0.00040559136307 
0.0004038172146 0.00040206926548 0.0004003462721 0.0003986457423 0.00039696565494 0.00039530237763 0.0003936543558 0.00039201853903 0.00039039175651 
0.0003887729827 0.00038716178214 0.00038555729866 0.00038395787507 0.00038236536783 0.00038078091033 0.00037920559718 0.00037764140809 0.00037608950004 
0.00037455149997 0.00037302789941 0.00037151993669 0.00037002661332 0.00036854840384 0.00036708505451 0.00036563588057 0.00036420014413 0.00036277812127 
0.00036136956076 0.00035997443863 0.0003585939427 0.0003572288096 0.00035588033617 0.00035454842898 0.00035323368948 0.00035193695581 0.00035065798609 
0.00034939558409 0.00034814959365 0.00034691851091 0.00034570014384 0.00042303151903 0.00042101725839 0.0004190256255 0.00041705787773 0.00041511491478 
0.00041319681231 0.00041130623005 0.00040944423744 0.0004076103648 0.00040580461479 0.00040402630573 0.00040227426185 0.00040054706666 0.00039884224638 
0.00039715746472 0.00039548938984 0.00039383637948 0.00039219486055 0.00039056254991 0.00038893847384 0.00038732148396 0.00038571248115 0.00038410793974 
0.00038251091998 0.00038092261958 0.00037934409486 0.00037777642869 0.00037622224288 0.00037468221289 0.00037315812771 0.00037164872959 0.0003701543343 
0.00036867511805 0.00036721023881 0.00036575956877 0.00036432148027 0.00036289615142 0.00036148378878 0.00036008490925 0.00035869971028 0.00035732905802 
0.00035597420241 0.00035463581143 0.00035331460453 0.00035201117307 0.00035072534979 0.00034945579598 0.00034820290814 0.00034696488819 0.00034574009021 
0.00042306571383 0.00042104539522 0.00041904756185 0.00041707387654 0.00041512579564 0.00041320295893 0.00041130848923 0.00040944288617 0.00040760488724 
0.00040579597846 0.0004040147152 0.00040225971158 0.00040052964706 0.00039882183932 0.00039713328328 0.00039546135854 0.00039380387005 0.00039215792 
0.00039052172212 0.0003888930374 0.00038727174859 0.00038565718265 0.00038405065039 0.00038244986914 0.00038085836522 0.00037927725867 0.00037770791413 
0.00037615229062 0.00037461128207 0.00037308608005 0.0003715759577 0.00037008129958 0.0003686013156 0.00036713573902 0.00036568345233 0.00036424368771 
0.00036281629227 0.0003614010575 0.00035999813987 0.00035860907311 0.00035723351606 0.00035587353336 0.00035452938503 0.00035320235852 0.00035189282203 
0.00035060042654 0.00034932490486 0.000348065352 0.00034682127002 0.00034559039349 0.00042290073557 0.00042087583755 0.00041887448658 0.00041689738464 
0.00041494480682 0.0004130202991 0.00041112296085 0.00040925515509 0.00040741594134 0.00040560528781 0.00040382207825 0.00040206502438 0.0004003323936 
0.00039862179535 0.0003969300748 0.00039525551185 0.00039359435079 0.00039194497081 0.00039030515274 0.00038867280315 0.00038704822972 0.00038543014233 
0.00038381871284 0.00038221713698 0.0003806235579 0.00037904079376 0.00037747022884 0.00037591352445 0.00037437250957 0.00037284670699 0.00037133658066 
0.00036984173648 0.00036836160544 0.00036689551497 0.00036544218778 0.00036400114465 0.00036257187028 0.00036115370683 0.0003597478397 0.00035835551749 
0.00035697606148 0.000355611566 0.00035426257765 0.00035293011074 0.00035161490565 0.00035031681798 0.00034903558915 0.00034777028 0.00034651998268 
0.0003452833914 0.0004225841599 0.00042055724958 0.00041855327889 0.00041657442715 0.00041462071675 0.00041269445481 0.00041079635848 0.0004089268948 
0.000407086708 0.00040527517257 0.00040349089335 0.00040173222304 0.00039999799299 0.00039828542855 0.00039659178077 0.00039491407146 0.00039325028074 
0.00039159817126 0.00038995456452 0.00038831934144 0.00038669134156 0.00038507096008 0.00038345762271 0.00038185227075 0.00038025909564 0.00037867530804 
0.00037710401422 0.00037554719761 0.00037400567242 0.00037247990634 0.00037097004733 0.00036947530833 0.00036799522318 0.00036652860507 0.00036507440681 
0.00036363229318 0.00036220136061 0.00036078124848 0.00035937294697 0.00035797733874 0.00035659447811 0.00035522629496 0.00035387293567 0.00035253602548 
0.00035121580533 0.0003499126029 0.00034862602536 0.00034735531235 0.00034609963917 0.00034485755012 0.00042216647118 0.00042013839656 0.00041813382568 
0.00041615433412 0.00041420031733 0.00041227404708 0.0004103761065 0.00040850641528 0.00040666552637 0.00040485302341 0.00040306785178 0.00040130826139 
0.00039957252183 0.00039785811591 0.00039616193356 0.0003944814891 0.00039281473837 0.00039115994039 0.00038951396324 0.00038787618063 0.00038624660258 
0.00038462409028 0.00038300936729 0.00038140313315 0.00037980720113 0.00037822411922 0.00037665270665 0.00037509594284 0.00037355427889 0.00037202851447 
0.0003705186543 0.00036902425156 0.00036754380011 0.00036607655996 0.0003646217158 0.00036317858906 0.00036174624899 0.00036032424719 0.00035891389011 
0.00035751525722 0.00035612946074 0.00035475776064 0.00035340093969 0.00035205979858 0.00035073528695 0.00034942737697 0.00034813612613 0.00034686035501 
0.00034559935602 0.00034435201934 0.00042169555617 0.00041966813997 0.00041766448314 0.00041568473519 0.00041373201531 0.0004118060921 0.00040990832605 
0.00040803926097 0.00040619837426 0.00040438558923 0.00040259967381 0.00040083880109 0.0003991016661 0.00039738463275 0.00039568585732 0.00039400290007 
0.00039233359973 0.00039067554373 0.0003890272589 0.00038738724972 0.00038575557137 0.00038413173278 0.0003825159505 0.00038090904545 0.00037931287606 
0.00037772828603 0.00037615891931 0.00037460227371 0.00037306084517 0.00037153510753 0.00037002424244 0.00036852944552 0.00036704854653 0.00036558053518 
0.00036412502598 0.00036268048129 0.00036124644892 0.0003598228702 0.00035841044462 0.00035700943385 0.00035562101367 0.00035424636219 0.00035288620005 
0.00035154181142 0.00035021319849 0.00034890114769 0.00034760501118 0.00034632449026 0.00034505871374 0.00034380608688 0.00042121746564 0.00041919162973 
0.00041718942641 0.00041521126286 0.00041325985262 0.00041133560251 0.00040943879889 0.00040756968981 0.00040572891258 0.00040391569208 0.00040212850769 
0.00040036618518 0.00039862690208 0.00039690732414 0.00039520577004 0.00039352003594 0.00039184745507 0.00039018645883 0.00038853582263 0.00038689340854 
0.00038525980969 0.0003836348178 0.00038201824089 0.00038041100547 0.00037881452348 0.00037723020465 0.00037566095021 0.00037410436527 0.00037256293908 
0.00037103665714 0.00036952610504 0.00036803042516 0.0003665485056 0.00036507938667 0.00036362192028 0.00036217565974 0.00036074013785 0.0003593148918 
0.00035790062829 0.00035649761195 0.00035510691853 0.00035372982694 0.00035236669553 0.00035101896466 0.00034968667916 0.00034837063284 0.0003470701339 
0.00034578467836 0.000344513954 0.00034325626783 0.00042077350913 0.00041875003485 0.00041674916549 0.00041477386676 0.00041282412818 0.00041090116461 
0.00040900512884 0.0004071360329 0.00040529501416 0.00040348057043 0.00040169229057 0.00039992809082 0.0003981857573 0.00039646319249 0.00039475844617 
0.00039306925473 0.00039139366129 0.00038972924354 0.00038807558617 0.00038643076291 0.00038479550524 0.00038316886414 0.0003815515146 0.00037994414362 
0.000378347623 0.00037676339446 0.00037519221665 0.00037363743045 0.00037209548726 0.00037056891978 0.00036905705122 0.00036756011241 0.0003660766489 
0.00036460599271 0.00036314685003 0.00036169909528 0.00036026163587 0.00035883487487 0.00035741787246 0.00035601286113 0.00035461989001 0.00035324023598 
0.00035187491404 0.00035052397256 0.00034918799661 0.00034786804755 0.00034656356 0.00034527331326 0.00034399748602 0.00034273487987 0.00042039830925 
0.00041837742098 0.00041637877403 0.00041440531502 0.00041245692772 0.00041053504307 0.00040863964604 0.00040677089019 0.00040492894913 0.00040311314663 
0.00040132219072 0.00039955526567 0.0003978093518 0.00039608335669 0.00039437494899 0.00039268161945 0.00039100224445 0.0003893342595 0.00038767728339 
0.00038603017416 0.00038439222252 0.0003827644517 0.00038114597358 0.0003795380759 0.00037794132643 0.00037635668082 0.00037478509524 0.00037322800321 
0.00037168729128 0.00037015959338 0.00036864635962 0.000367147502 0.0003656621776 0.00036418919686 0.00036272756593 0.00036127736527 0.00035983767967 
0.00035840883719 0.00035699058439 0.00035558375233 0.00035418863813 0.0003528068663 0.00035143823386 0.00035008424135 0.00034874496132 0.00034742088416 
0.00034611196633 0.0003448176382 0.00034353668438 0.0003422689593 0.00042011894589 0.0004180992843 0.00041610351458 0.00041413212759 0.00041218519299 
0.0004102637893 0.00040836830362 0.00040649887903 0.00040465568075 0.00040283764592 0.00040104377627 0.00039927316057 0.00039752328205 0.00039579301272 
0.00039407972928 0.00039238182386 0.00039069789224 0.00038902579115 0.00038736545952 0.00038571499672 0.00038407477244 0.00038244511939 0.00038082587675 
0.00037921654099 0.00037761897576 0.00037603362313 0.00037446101294 0.00037290306862 0.0003713592779 0.00036983166574 0.00036831623121 0.0003668148697 
0.00036532676381 0.00036385148279 0.00036238723742 0.00036093448247 0.00035949217632 0.00035806061905 0.00035664022501 0.00035523111662 0.00035383375891 
0.00035244942946 0.00035107880047 0.00034972167456 0.00034837919 0.00034705058319 0.00034573760492 0.00034443811163 0.00034315253869 0.00034187926164 
0.0004199568627 0.00041793924664 0.00041594518041 0.00041397458888 0.00041202820969 0.00041010683124 0.00040821064586 0.00040633981431 0.00040449440512 
0.00040267304059 0.00040087602337 0.00039910067871 0.00039734598683 0.00039561034398 0.000393892154 0.00039218899828 0.00039049980392 0.00038882298301 
0.00038715865373 0.00038550476821 0.00038386184233 0.00038222953436 0.00038060805594 0.00037899753826 0.00037739829737 0.00037581159669 0.00037423774897 
0.00037267825064 0.00037113230543 0.0003696021423 0.00036808419251 0.00036657955296 0.00036508870012 0.00036360999779 0.00036214263152 0.00036068655896 
0.00035924136527 0.00035780734929 0.0003563842277 0.00035497237412 0.00035357213852 0.00035218526854 0.0003508113633 0.00034945140588 0.00034810533571 
0.0003467735613 0.0003454558143 0.000344151748 0.00034286038387 0.00034158183764 0.00041992621785 0.00041791057684 0.00041591741954 0.00041394748128 
0.00041200082916 0.00041007867413 0.00040818126672 0.00040630827538 0.000404459129 0.00040263442517 0.00040083222491 0.00039905185799 0.00039729139567 
0.00039554980779 0.0003938254199 0.00039211631402 0.00039042142782 0.00038873982467 0.00038707060861 0.00038541286179 0.00038376623509 0.00038213057956 
0.00038050622942 0.00037889340849 0.00037729217609 0.00037570298436 0.00037412744462 0.00037256528889 0.00037101651535 0.0003694814433 0.00036796234095 
0.00036645452346 0.00036495965069 0.00036347696785 0.0003620059578 0.00036054633082 0.00035909777911 0.00035766024638 0.00035623404754 0.00035481934796 
0.00035341634292 0.00035202614639 0.0003506491383 0.00034928572927 0.00034793580742 0.0003465997269 0.00034527739148 0.00034396861942 0.0003426728841 
0.00034138893281 0.00042003862977 0.00041802354934 0.00041603044956 0.00041405998121 0.00041211257373 0.00041018900703 0.00040828880192 0.00040641296108 
0.00040456009828 0.00040273077515 0.00040092258297 0.00039913609059 0.00039736924689 0.00039562083348 0.00039388954679 0.00039217353969 0.00039047264952 
0.0003887851938 0.00038711045757 0.00038544791693 0.00038379709206 0.00038215710081 0.00038052927247 0.00037891321343 0.00037730898744 0.00037571728573 
0.00037413844858 0.0003725729896 0.00037102050972 0.00036948189799 0.00036795674453 0.00036644665238 0.00036494760081 0.00036346066565 0.00036198546095 
0.00036052170486 0.00035906900763 0.00035762785606 0.00035619814512 0.00035477986943 0.00035337332611 0.00035197963756 0.00035059914289 0.00034923153267 
0.0003478778493 0.00034653720847 0.00034521017909 0.00034389623841 0.00034259508787 0.00034130568198 0.00042029968557 0.00041828433634 0.00041629023828 
0.00041431872902 0.00041236980382 0.00041044350969 0.00040854034373 0.00040666069435 0.00040480290795 0.0004029677066 0.00040115396918 0.00039935979994 
0.00039758565213 0.00039582965971 0.00039409063075 0.00039236729149 0.0003906592592 0.00038896546341 0.00038728442961 0.00038561594716 0.00038395984298 
0.00038231540279 0.00038068255721 0.00037906226272 0.00037745430723 0.0003758587449 0.00037427587515 0.00037270597945 0.00037114964262 0.00036960650877 
0.00036807674857 0.00036655986785 0.00036505755015 0.00036356579106 0.00036208603113 0.0003606172891 0.00035916038542 0.00035771470169 0.00035628063563 
0.00035485835878 0.00035344880985 0.00035205106993 0.0003506661885 0.00034929415712 0.00034793529433 0.00034658998511 0.00034525789312 0.00034393862038 
0.00034263188075 0.0003413375732 0.00042071156681 0.00041869534315 0.0004167011698 0.0004147272533 0.000412776072 0.00041084705733 0.00040894029886 
0.00040705535808 0.00040519238306 0.00040335033118 0.0004015293847 0.00039972763185 0.00039794518834 0.00039618056935 0.00039443345784 0.00039270187554 
0.00039098556475 0.00038928382105 0.00038759563371 0.00038592056615 0.00038425791399 0.00038260770754 0.00038096983646 0.00037934402024 0.00037773100624 
0.00037613019838 0.0003745426173 0.00037296802304 0.00037140676938 0.00036985828696 0.00036832316463 0.00036680093453 0.00036529287096 0.00036379539102 
0.00036231040004 0.00036083638001 0.000359374119 0.00035792385955 0.00035648516308 0.00035505843737 0.00035364362515 0.00035224138939 0.00035085161603 
0.0003494752132 0.00034811155298 0.00034676088157 0.00034542319619 0.0003440988528 0.00034278675431 0.00034148697094 0.00042127633273 0.00041925900363 
0.00041726346319 0.00041528830928 0.00041333340646 0.00041140070586 0.00040948950283 0.00040759952406 0.0004057293451 0.00040388038498 0.00040205131312 
0.00040024136813 0.00039844941886 0.00039667561738 0.00039491893063 0.00039317828925 0.00039145311387 0.00038974265688 0.00038804608836 0.00038636343512 
0.00038469346708 0.00038303634148 0.00038139167761 0.0003797597324 0.00037814014719 0.00037653371457 0.00037494033609 0.00037336003194 0.0003717927543 
0.00037023836586 0.0003686973801 0.00036716888295 0.0003656528704 0.00036415127135 0.00036265941188 0.00036117952237 0.00035971173734 0.00035825571196 
0.00035681177214 0.00035537969673 0.00035395971951 0.00035255211009 0.00035115700711 0.00034977516623 0.0003484062163 0.00034705026122 0.00034570730854 
0.00034437734854 0.00034305978433 0.00034175438203 0.00042199479 0.0004199761941 0.00041797840366 0.0004160006544 0.00041404371828 0.00041210595091 
0.00041018920937 0.00040829269728 0.0004064156855 0.00040455840306 0.0004027205536 0.00040090089459 0.00039909917425 0.00039731548771 0.00039554858569 
0.00039379746134 0.00039206224845 0.00039034209774 0.00038863624769 0.00038694462084 0.00038526664877 0.00038360187306 0.00038194950554 0.0003803101728 
0.00037868359023 0.00037706967566 0.00037546922061 0.00037388230329 0.00037230819033 0.00037074652198 0.00036919863383 0.00036766332841 0.00036614067774 
0.00036463006152 0.00036313357994 0.0003616472015 0.00036017281073 0.00035871077086 0.000357261171 0.0003558228737 0.00035439681617 0.00035298358779 
0.00035158307823 0.00035019557197 0.00034882085851 0.00034745917911 0.00034611098661 0.00034477487308 0.00034345185498 0.00034214077591 0.00042286759834 
0.00042084725065 0.00041884677002 0.0004168668197 0.00041490576192 0.00041296316424 0.00041104108229 0.00040913711692 0.00040725247391 0.00040538714325 
0.0004035399414 0.0004017104819 0.00039989780912 0.0003981030586 0.00039632486515 0.00039456246563 0.00039281632753 0.00039108539892 0.00038936905611 
0.000387666999 0.00038597914662 0.00038430452605 0.00038264340401 0.00038099570237 0.00037936089704 0.00037773897824 0.0003761302231 0.00037453546435 
0.00037295332059 0.00037138432857 0.00036982839652 0.00036828508126 0.00036675481862 0.00036523682389 0.00036373305756 0.0003622395976 0.000360758353 
0.00035928926052 0.0003578323364 0.0003563875834 0.00035495500017 0.00035353539698 0.00035212867732 0.00035073510019 0.00034935454195 0.00034798696873 
0.00034663278241 0.00034529116495 0.00034396216234 0.00034264588813 0.00042389340746 0.00042187152727 0.00041986916207 0.00041788580782 0.0004159204765 
0.00041397385402 0.00041204464453 0.00041013381666 0.00040824084978 0.00040636554781 0.00040450779832 0.00040266708651 0.00040084346324 0.00039903661127 
0.00039724584759 0.00039547110334 0.00039371268496 0.00039197010529 0.00039024212268 0.00038852889159 0.00038682957379 0.00038514486964 0.0003834738897 
0.00038181620748 0.00038017192386 0.00037854092948 0.00037692301684 0.00037531888548 0.00037372837492 0.00037215072491 0.0003705857647 0.00036903398723 
0.00036749526452 0.00036596924318 0.0003644553969 0.00036295613634 0.00036146723672 0.00035999060731 0.00035852619275 0.00035707422274 0.00035563473564 
0.00035420823611 0.00035279495611 0.00035139431362 0.00035000712747 0.0003486334823 0.00034727267934 0.00034592508535 0.00034459056975 0.00034326817415 
0.00042507215998 0.00042304888369 0.00042104265406 0.00041905552238 0.00041708603778 0.00041513398406 0.00041319942998 0.00041128011454 0.00040937795583 
0.0004074930053 0.0004056245952 0.00040377253401 0.00040193623114 0.00040011642916 0.00039831271742 0.00039652470683 0.00039475290299 0.00039299698177 
0.00039125647324 0.0003895310159 0.00038781940173 0.00038612297327 0.00038444084034 0.00038277217108 0.00038111710212 0.00037947588765 0.00037784787069 
0.00037623341711 0.00037463304538 0.0003730457187 0.00037147143964 0.00036991015152 0.00036836210068 0.00036682684004 0.00036530408394 0.0003637939424 
0.00036229862823 0.00036081367186 0.00035934122636 0.00035788177664 0.00035643483719 0.00035500092409 0.00035358013401 0.00035217266163 0.00035077882545 
0.00034939820979 0.00034803144647 0.00034667784337 0.00034533730606 0.00034400969569 0.00042640312829 0.00042437763509 0.0004223686308 0.0004203774153 
0.00041840365494 0.00041644597288 0.00041450412714 0.00041257749128 0.00041066541348 0.00040876979072 0.00040688964095 0.00040502525922 0.00040317603686 
0.00040134228761 0.00039952449093 0.00039772289994 0.00039593687555 0.00039416700765 0.00039241251475 0.00039067320436 0.000388948922 0.00038723946804 
0.00038554437975 0.00038386378572 0.00038219718123 0.00038054437459 0.00037890522695 0.00037727961961 0.00037566761921 0.00037406942169 0.00037248448676 
0.00037091305076 0.00036935433648 0.0003678092286 0.00036627679922 0.00036475728065 0.00036325279268 0.000361758999 0.00036027816146 0.0003588104462 
0.0003573554556 0.00035591378472 0.00035448549002 0.00035307064803 0.00035166978951 0.00035028275369 0.00034890938492 0.00034754967336 0.00034620332733 
0.00034487035416 0.00042788625535 0.0004258584832 0.00042384646367 0.00042185159194 0.00041987226255 0.00041790846591 0.0004159590131 0.00041402404883 
0.00041210208714 0.00041019544101 0.00040830316061 0.00040642550038 0.0004045622534 0.00040271419447 0.00040088173306 0.00039906514712 0.00039726443758 
0.00039547943474 0.00039370957192 0.00039195649438 0.00039021790155 0.00038849464051 0.0003867858407 0.00038509177764 0.000383411905 0.0003817461523 
0.00038009423873 0.00037845630232 0.00037683248934 0.00037522186801 0.00037362528009 0.00037204210401 0.00037047243494 0.0003689163844 0.00036737370442 
0.00036584369909 0.00036432758491 0.00036282641053 0.0003613364715 0.0003598598814 0.00035839656052 0.00035694664629 0.00035551077427 0.00035408845691 
0.00035268054963 0.00035128669989 0.00034990676127 0.00034854104322 0.00034718915084 0.00034585042119 0.00042952178646 0.0004274912056 0.00042547620662 
0.00042347655491 0.00042149203156 0.0004195214033 0.00041756408433 0.00041561960518 0.00041368809223 0.00041176890278 0.00040986157251 0.00040797014143 
0.00040609257292 0.00040422973853 0.00040238141987 0.00040054962917 0.00039873307529 0.00039693223078 0.00039514693826 0.00039337779973 0.00039162379101 
0.00038988556304 0.00038816195053 0.00038645306202 0.00038475879399 0.00038307927491 0.00038141377929 0.00037976215009 0.00037812494142 0.00037650101896 
0.00037489120704 0.00037329540564 0.00037171405576 0.00037014600989 0.00036859180964 0.00036705167101 0.00036552456887 0.00036401152659 0.00036251379424 
0.00036102794868 0.00035955589815 0.00035809781626 0.00035665374309 0.00035522394593 0.00035380900295 0.00035241067983 0.00035102467417 0.0003496531632 
0.00034829570503 0.00034695153257 0.000431308432 0.00042927312953 0.00042725401496 0.00042524977951 0.00042325879282 0.00042128141638 0.00041931508439 
0.00041736087774 0.00041541806082 0.00041348755061 0.00041156837048 0.00040966294849 0.00040777046023 0.00040589172454 0.00040402769319 0.00040217916373 
0.00040034611058 0.00039852899193 0.00039672772585 0.00039494182058 0.00039317138099 0.00039141684461 0.00038967750072 0.0003879528312 0.00038624330925 
0.00038454866138 0.00038286761901 0.00038120064971 0.00037954871337 0.00037791076566 0.00037628680178 0.00037467760645 0.00037308294394 0.0003715021468 
0.00036993576275 0.00036838408067 0.00036684608756 0.00036532240632 0.00036381451377 0.00036231890664 0.00036083801859 0.00035937140666 0.00035791952803 
0.00035648224178 0.00035506008174 0.00035365302877 0.00035226068568 0.00035088333864 0.00034952000468 0.00034817103569 0.00043324606559 0.00043120666045 
0.00042918245376 0.000427172812 0.00042517530573 0.00042318982283 0.00042121426091 0.00041924985574 0.0004172954908 0.00041535211313 0.00041341975134 
0.00041149836399 0.00040959076547 0.00040769591259 0.00040581536354 0.00040395026492 0.00040210035834 0.00040026615547 0.00039844781102 0.00039664517776 
0.00039485728477 0.00039308560788 0.00039132909303 0.00038958798624 0.00038786158827 0.00038614976108 0.00038445238048 0.00038276937096 0.0003811012889 
0.0003794478214 0.00037780891591 0.00037618464863 0.0003745757653 0.00037298157111 0.00037140204346 0.00036983833756 0.00036828880849 0.000366754373 
0.00036523418923 0.00036373066302 0.00036224056816 0.00036076512882 0.00035930461347 0.00035785980579 0.00035643089401 0.00035501744557 0.00035361932946 
0.0003522363984 0.0003508681754 0.00034951433743 0.00043533105116 0.00043328647087 0.00043125663938 0.00042924044567 0.0004272362179 0.00042524200773 
0.00042325627827 0.00042128021325 0.0004193133632 0.00041735627642 0.00041540960678 0.00041347338884 0.00041154984302 0.00040963865291 0.00040774169949 
0.00040585956919 0.00040399295101 0.00040214084167 0.00040030506165 0.00039848463892 0.00039667921339 0.00039488890935 0.00039311493929 0.00039135565964 
0.00038961127045 0.00038788110437 0.0003861663877 0.00038446582032 0.00038278052835 0.0003811097788 0.00037945457733 0.00037781515653 0.00037619080651 
0.00037458206445 0.0003729894263 0.00037141264797 0.00036985116207 0.00036830502078 0.00036677442911 0.00036525825312 0.00036376059074 0.00036227676085 
0.00036080843393 0.00035935613251 0.00035792035342 0.00035650047646 0.00035509670342 0.00035370854764 0.0003523357789 0.00035097764394 0.00043755825482 
0.00043550953274 0.00043347189 0.00043144814459 0.00042943505595 0.00042743103963 0.00042543472952 0.00042344638676 0.0004214663587 0.00041949528008 
0.00041753387302 0.00041558297385 0.00041364247349 0.0004117150432 0.00040980142665 0.00040790233531 0.00040601777529 0.00040414851068 0.00040229453416 
0.00040045568859 0.00039863161854 0.00039682335445 0.00039503021463 0.00039325171152 0.0003914877115 0.00038973874867 0.00038800497488 0.00038628593377 
0.00038458195483 0.00038289340044 0.00038122105628 0.00037956471941 0.00037792469776 0.00037630089326 0.00037469411245 0.00037310346481 0.000371528871 
0.0003699707607 0.00036842918747 0.00036690328983 0.00036539607705 0.00036390328791 0.0003624269764 0.00036096732821 0.00035952470821 0.00035809881068 
0.00035668970419 0.00035529698162 0.00035391950198 0.00035255700037 0.00043991964069 0.0004378639959 0.0004358182693 0.00043378588212 0.00043176297405 