# vtk DataFile Version 5.1
vtk output
ASCII
DATASET STRUCTURED_POINTS
DIMENSIONS 20 20 20
SPACING 0.005 0.005 0.005
ORIGIN 0.2189 -0.051172 0.02882
POINT_DATA 8000
FIELD FieldData 1
potential 1 8000 double
0.00040551640184 0.00040126838072 0.00039712128036 0.00039308656566 0.00038917572836 0.00038538195662 0.00038168590647 0.00037806390748 0.00037450065925 
0.00037099277232 0.00036754638872 0.00036416855371 0.0003608633262 0.00035762982506 0.00035446512026 0.00035136511055 0.00034832336793 0.00034533605679 
0.0003424008472 0.0003395114143 0.0004089162589 0.00040459918478 0.00040038150713 0.00039627778283 0.00039230097984 0.00038844699263 0.00038469791003 
0.00038102972281 0.00037742512339 0.00037387929287 0.0003703956855 0.00036698183624 0.0003636423898 0.00036037747674 0.00035718247511 0.00035405121915 
0.00035097652026 0.00034795161569 0.00034497500509 0.00034204339079 0.00041123978927 0.00040687262966 0.00040260319765 0.0003984476735 0.00039442088598 
0.00039052151974 0.00038673275344 0.00038303127042 0.0003793976765 0.00037582382754 0.00037231135172 0.00036886741641 0.00036549792179 0.00036220297883 
0.00035898028135 0.00035581964331 0.00035271129635 0.00034964805169 0.00034662896099 0.0003436545224 0.00041240372034 0.00040800689837 0.00040370746064 
0.00039952135213 0.00039546502732 0.00039153819417 0.00038772547742 0.00038400343295 0.00038035102565 0.00037675769447 0.00037322290311 0.00036975459237 
0.00036635934143 0.00036303809101 0.00035978756941 0.00035659753825 0.000353456151 0.0003503569397 0.00034729888416 0.00034428578855 0.00041263796567 
0.00040823046298 0.00040392001463 0.00039972773501 0.00039566044856 0.00039172224686 0.00038789786836 0.00038416426668 0.00038049875044 0.00037689060092 
0.00037333913188 0.00036985019414 0.00036643179618 0.00036308450925 0.00035980516968 0.00035658436317 0.00035341108723 0.00035028007878 0.0003471897429 
0.00034414587885 0.00041237869146 0.00040797528215 0.00040367143949 0.00039948552007 0.00039542270607 0.00039148309059 0.00038765320277 0.00038391092507 
0.00038023417154 0.00037661289252 0.00037304576934 0.00036953835472 0.00036609696749 0.0003627223206 0.00035941226764 0.00035615885665 0.00035295467683 
0.00034979481336 0.00034667856453 0.00034361111321 0.00041208789799 0.00040769408819 0.00040340310413 0.00039923041141 0.00039517642484 0.00039124026557 
0.00038740639919 0.00038365337877 0.00037996342331 0.0003763273245 0.00037274392368 0.0003692174205 0.00036575160811 0.00036234843171 0.00035900603711 
0.00035571936258 0.00035248477797 0.00034929821855 0.00034615959644 0.00034307150459 0.00041211122172 0.0004077249792 0.00040344725295 0.00039928630387 
0.00039523905944 0.00039130216804 0.00038746077084 0.00038369495108 0.00037998958406 0.00037633412956 0.00037273162769 0.00036918347925 0.00036569195129 
0.00036225925734 0.00035888431349 0.0003555656228 0.00035230066482 0.00034908754089 0.00034592640715 0.00034281856955 0.00041264335595 0.00040826111233 
0.00040398856949 0.0003998296131 0.00039578669732 0.00039184351637 0.00038798858531 0.00038420424723 0.00038047734617 0.00037680115338 0.0003731752215 
0.00036960245565 0.00036608368721 0.00036262129491 0.00035921489469 0.00035586492028 0.00035257018145 0.00034932943145 0.00034614376838 0.00034301256419 
0.00041376160963 0.00040937913758 0.00040510693814 0.00040094559425 0.00039689361868 0.00039293606328 0.00038906120967 0.00038525241631 0.00038149964697 
0.00037779745245 0.00037414553992 0.00037054487213 0.00036699774206 0.00036350544908 0.0003600689198 0.00035668827622 0.00035336272296 0.00035009374869 
0.00034688017891 0.00034372198869 0.00041548740701 0.00041110157022 0.00040682505604 0.00040265307948 0.00039858456997 0.00039460377299 0.00039070038173 
0.0003868607578 0.00038307792547 0.00037934435436 0.0003756627684 0.00037203320653 0.00036845700848 0.00036493455734 0.0003614672639 0.00035805606776 
0.00035469985497 0.0003514004025 0.00034815682937 0.00034496849505 0.00041782543274 0.00041343218469 0.00040914456685 0.00040495587793 0.00040086365763 
0.00039685184586 0.00039291300362 0.0003890365379 0.00038521607485 0.00038144817195 0.00037773497457 0.00037407425953 0.00037046850564 0.0003669169319 
0.00036341984457 0.00035997685053 0.00035658933369 0.00035325705178 0.00034998048054 0.00034675917913 0.00042078321068 0.00041637528968 0.00041206797319 
0.00040785375407 0.00040372900128 0.00039967881743 0.00039569822515 0.00039177946648 0.00038791860914 0.00038411258123 0.00038036415853 0.00037667213451 
0.0003730378122 0.00036945774634 0.00036593090817 0.0003624575459 0.00035903643038 0.00035566974644 0.00035235794234 0.00034910028695 0.00042436195065 
0.00041992706979 0.0004155882093 0.00041133681312 0.00040717040076 0.00040307481677 0.00039904754883 0.00039508271789 0.00039117734661 0.00038733112689 
0.00038354612406 0.00037982286692 0.00037615988766 0.00037255344563 0.00036900075882 0.00036549622182 0.00036204222508 0.00035863872807 0.00035528828474 
0.00035199150474 0.00042852439985 0.0004240448912 0.0004196577651 0.00041535687649 0.00041113605564 0.00040699352557 0.00040291658093 0.00039890312889 
0.00039495149128 0.0003910639101 0.00038724124226 0.00038348706304 0.00037979803171 0.00037616819609 0.00037258975664 0.00036905834797 0.00036556994605 
0.00036212838848 0.00035873614309 0.000355396712 0.00043313617185 0.00042859487293 0.00042414391977 0.00041978094283 0.00041550155933 0.00041130487336 
0.00040717616064 0.00040311368299 0.00039911578445 0.00039518586711 0.00039132656522 0.00038754246183 0.0003838287025 0.00038017744932 0.00037657696288 
0.00037301781746 0.00036949678647 0.00036601666681 0.00036258040625 0.00035919523122 0.0004379068778 0.00043329110379 0.0004287667681 0.00042433479488 
0.00041999358379 0.00041574191582 0.00041156336381 0.00040745451482 0.00040341428004 0.0003994447071 0.00039555160551 0.00039173764149 0.00038799893437 
0.00038432500372 0.00038070196547 0.00037711690567 0.00037356335857 0.00037004303224 0.00036656408678 0.000363132818 0.00044238213124 0.00043769229692 
0.0004330948165 0.00042859555043 0.00042419507184 0.0004198924499 0.00041566962908 0.00041152249948 0.00040744643627 0.00040344422129 0.00039952027163 
0.00039567711079 0.00039191130445 0.00038821124639 0.0003845622314 0.00038094900363 0.00037736448738 0.00037380870439 0.00037028973051 0.00036681600755 
0.00044604550931 0.0004412918237 0.00043663318347 0.00043207734168 0.00042762756213 0.00042328212839 0.00041902521603 0.00041484973189 0.00041074861161 
0.00040672176416 0.00040277174076 0.00039890086366 0.00039510540697 0.00039137441818 0.0003876948995 0.00038405251141 0.0003804393432 0.00037685421266 
0.00037330361955 0.00036979545788 0.00044850436015 0.00044370591861 0.00043900465566 0.00043441023288 0.00042992602688 0.00042555184544 0.00042127127444 
0.00041707708722 0.00041295987225 0.0004089153141 0.00040494278574 0.00040104516196 0.00039721895512 0.00039345578892 0.0003897442367 0.00038607313692 
0.00038243544066 0.00037882862589 0.00037525598746 0.00037172331396 0.00046350967153 0.00045876839503 0.00045413138452 0.00044960018312 0.00044518082944 
0.00044086946449 0.00043665583545 0.00043252679464 0.00042847378282 0.00042449206155 0.00042058129239 0.00041674381928 0.00041298072871 0.00040929129847 
0.00040567289408 0.00040212345114 0.00039863797006 0.00039521293373 0.00039184581918 0.00038853233071 0.00046669046284 0.00046188485514 0.00045718433847 
0.00045259133569 0.00044811309792 0.0004437465073 0.00043948206947 0.00043530626048 0.00043120983417 0.00042718663715 0.00042323610013 0.00041936007473 
0.00041555974404 0.00041183454083 0.00040818051376 0.00040459576612 0.00040107464971 0.00039761237534 0.00039420657252 0.00039085504312 0.00046920355544 
0.00046434582101 0.00045959361392 0.00045495000744 0.00045042294326 0.00044601057447 0.00044170401304 0.00043748978907 0.00043335617561 0.00042929759396 
0.0004253123065 0.00042140163016 0.000417566626 0.00041380661348 0.00041011938891 0.00040650002316 0.00040294279397 0.00039944280204 0.00039599835688 
0.00039260843738 0.00047100484865 0.00046610792932 0.00046131723885 0.00045663624285 0.00045207300756 0.00044762595708 0.00044328640366 0.00043904099665 
0.00043487740398 0.00043078940708 0.00042677339321 0.00042283109793 0.00041896428251 0.00041517153496 0.00041145142802 0.00040779802765 0.0004042047965 
0.00040066842121 0.00039718689355 0.00039376069671 0.00047221544436 0.00046729173221 0.00046247341449 0.00045777073193 0.00045318226132 0.00044871045473 
0.00044434597646 0.00044007578058 0.00043588708866 0.00043177306708 0.0004277301817 0.00042375918115 0.00041986197281 0.00041603735829 0.00041228392199 
0.00040859640852 0.00040496847953 0.00040139773217 0.00039788211365 0.00039442304142 0.00047307772542 0.00046813673593 0.00046330248368 0.0004585847963 
0.00045398108616 0.00044949070401 0.00044510626025 0.00044081468402 0.00043660322358 0.0004324648896 0.00042839646345 0.00042439797335 0.00042047098858 
0.00041661445425 0.00041282766131 0.00040910558838 0.00040544413122 0.00040184038672 0.00039829296634 0.0003948040014 0.00047386660753 0.00046891276321 
0.00046406821664 0.00045934059482 0.00045472527188 0.00045022104051 0.00044581868844 0.00044150586254 0.00043727089158 0.00043310826418 0.00042901386777 
0.0004249875118 0.00042103018118 0.00041714174101 0.00041332080138 0.00040956460541 0.00040586941321 0.00040223400693 0.00039865705517 0.00039513945926 
0.00047481738317 0.00046985291471 0.00046499901158 0.00046026212037 0.00045563463707 0.00045111496503 0.00044669327865 0.00044235843134 0.00043809996225 
0.00043390970437 0.00042978789303 0.00042573321703 0.00042174452998 0.00041782349392 0.00041396818634 0.0004101777158 0.00040644951139 0.00040278218094 
0.00039917590079 0.0003956305666 0.00047609415164 0.00047111617809 0.00046625042818 0.00046150115182 0.00045685966489 0.00045232133416 0.00044787698387 
0.00044351656127 0.00043923048123 0.00043501270705 0.00043086097424 0.00042677542123 0.00042275502568 0.00041880044563 0.00041491129756 0.00041108681514 
0.00040732513344 0.00040362557878 0.00039998877787 0.0003964136007 0.0004777887023 0.00047279538252 0.00046791466912 0.00046314537744 0.00045848622548 
0.00045392411273 0.0004494539034 0.00044506401316 0.00044074717141 0.00043649816183 0.00043231498204 0.00042819712747 0.00042414303134 0.00042015527942 
0.00041623184927 0.00041237292889 0.00040857801978 0.00040484534915 0.00040117613067 0.00039756928144 0.00047994652636 0.00047493500598 0.00047003553158 
0.00046524383069 0.00046055898969 0.00045596794252 0.0004514646101 0.00044704030242 0.00044268967492 0.00043840578471 0.0004341889475 0.0004300371267 
0.00042595014124 0.0004219276478 0.00041797034755 0.00041407743872 0.00041024764477 0.00040648135988 0.00040277846253 0.00039913754212 0.00048258554381 
0.0004775508032 0.000472627243 0.00046780811258 0.00046309229264 0.00045846644488 0.00045392589398 0.00044946305553 0.00044507303306 0.0004407512868 
0.00043649941308 0.00043231231352 0.0004281912972 0.00042413555102 0.00042014427057 0.00041621584358 0.00041235142803 0.00040854936068 0.00040481052186 
0.0004011341 0.00048570321261 0.00048064011573 0.00047568520021 0.00047083217984 0.00046607925523 0.00046141280808 0.00045683028435 0.00045232543284 
0.00044789427022 0.00044353277874 0.00043924212016 0.00043501898518 0.00043086472962 0.00042677566414 0.00042275007251 0.00041878759926 0.00041488689464 
0.00041104790342 0.00040727183525 0.00040355699612 0.00048927594952 0.00048417588528 0.0004791819506 0.00047428722501 0.00046949063644 0.00046477882819 
0.00046015028602 0.0004555997819 0.00045112501629 0.00044672209609 0.000442392314 0.00043813346915 0.00043394467985 0.00042982364357 0.00042576541652 
0.00042176832848 0.00041783163831 0.00041395435827 0.00041013857758 0.0004063842123 0.00049323702243 0.00048809067771 0.00048304829614 0.00047810479559 
0.00047325424541 0.00046849665461 0.00046381944687 0.00045922249255 0.0004547020977 0.00045025689154 0.00044588789864 0.00044159354766 0.00043737183116 
0.00043321780497 0.00042912766842 0.00042509721225 0.00042112421542 0.00041720862181 0.00041335200118 0.00040955564546 0.0004974550553 0.00049225302206 
0.00048715361636 0.00048215367555 0.00047724907105 0.00047243990479 0.00046771281139 0.00046306791948 0.00045850242003 0.00045401564791 0.00044960711413 
0.00044527776905 0.00044102355708 0.00043683886874 0.00043271757114 0.0004286536457 0.00042464461424 0.00042069102604 0.00041679287663 0.00041295340246 
0.00050171122818 0.00049644738522 0.00049128679767 0.00048622747327 0.00048126690828 0.00047640568869 0.00047163011456 0.00046693942457 0.00046233089987 
0.00045780425718 0.00045335853469 0.00044899453797 0.0004447078651 0.00044049200702 0.00043633978867 0.00043224337188 0.00042819902589 0.00042420587354 
0.00042026742355 0.00041638570959 0.00050571903316 0.00050039335475 0.00049517183799 0.00049005488826 0.00048504087264 0.00048013037096 0.00047531010836 
0.000470578152 0.0004659310383 0.0004613672978 0.0004568867376 0.00045248881479 0.00044816945316 0.00044392156133 0.00043973733414 0.00043560793182 
0.00043152933516 0.00042750004898 0.00042352256945 0.00041960000173 0.00050918221811 0.00050380075006 0.00049852509647 0.00049335632311 0.00048829545438 
0.00048334127098 0.00047848275749 0.00047371533873 0.00046903492243 0.00046443845065 0.00045992525958 0.0004554942448 0.00045114198096 0.00044686104505 
0.00044264359904 0.00043848187105 0.00043437084681 0.00043030883436 0.00042629759788 0.00042233938537 0.0005118871495 0.00050646051471 0.00050114179714 
0.00049593241016 0.00049083315947 0.00048584375514 0.00048095305012 0.00047615600513 0.00047144665249 0.00046682187713 0.0004622778982 0.00045781502254 
0.00045342945924 0.00044911553866 0.00044486512527 0.000440672066 0.00043653150518 0.0004324412912 0.00042840101811 0.00042441326946 0.00052189873226 
0.00051664764241 0.00051150019946 0.00050646138254 0.00050153122339 0.00049670755018 0.00049198392882 0.0004873526406 0.00048280826331 0.00047834651229 
0.00047396476076 0.00046966296467 0.00046544013726 0.00046129544957 0.00045722638461 0.00045323109168 0.00044930592313 0.00044544822912 0.00044165461888 
0.0004379223816 0.00052506937464 0.000519752168 0.00051454578599 0.00050944700807 0.00050445966599 0.00049958133951 0.00049480639701 0.00049012646353 
0.00048553558559 0.0004810288731 0.0004766041714 0.00047226016414 0.00046799660358 0.0004638121715 0.00045970304643 0.00045566907847 0.0004517052656 
0.00044780850235 0.00044397586212 0.00044020576473 0.00052781981138 0.00052244738561 0.00051718702449 0.00051203520728 0.00050699744058 0.00050207061725 
0.00049724960472 0.000492526364 0.00048789298335 0.00048334510982 0.00047888014092 0.00047449697928 0.00047019402727 0.00046597067491 0.00046182341852 
0.00045775085475 0.00045374833804 0.00044981229744 0.00044594107084 0.00044213258009 0.00053012507525 0.00052470564439 0.00051939905393 0.00051420332571 
0.00050912259659 0.00050415449888 0.00049929337769 0.00049453107796 0.00048985975906 0.00048527489489 0.00048077264377 0.00047635196229 0.0004720116491 
0.00046774995079 0.00046356573016 0.00045945507573 0.00045541408259 0.00045143988972 0.00044753029871 0.00044368476882 0.00053205211877 0.00052659418123 
0.00052124798445 0.00051601904764 0.00051090210076 0.00050589865309 0.00050100290978 0.00049620594048 0.0004915003988 0.00048688110702 0.00048234386717 
0.00047788759685 0.00047351109201 0.00046921248938 0.0004649909044 0.00046084240329 0.00045676393029 0.00045275192053 0.00044880560832 0.00044492439253 
0.00053374231771 0.00052825211583 0.00052287483875 0.00051761600711 0.00051246954998 0.00050743540508 0.00050250812112 0.00049768001899 0.00049294184346 
0.00048828956099 0.00048371888834 0.00047922793429 0.00047481565589 0.00047048056136 0.00046622159014 0.00046203557192 0.00045791960326 0.00045387107284 
0.00044988940189 0.00044597391201 0.00053536474461 0.00052984568519 0.0005244416785 0.00051915700845 0.00051398391405 0.00050892276927 0.000503966168 
0.00049910682403 0.00049433670704 0.00048965169528 0.00048504735759 0.00048052187824 0.00047607346409 0.00047170210076 0.00046740555055 0.00046318242064 
0.00045902942526 0.00045494465896 0.0004509283733 0.00044697932523 0.00053707775793 0.00053153294902 0.0005261036146 0.00052079358042 0.00051559461243 
0.00051050561411 0.00050551933507 0.00050062931305 0.00049582757633 0.00049110768814 0.00048646925831 0.00048190872185 0.00047742422257 0.00047301587302 
0.00046868209844 0.00046442137913 0.00046023143142 0.00045611117007 0.00045205971927 0.00044807697597 0.00053900737408 0.00053343496179 0.0005279792996 
0.00052264296685 0.00051741738328 0.00051229871061 0.0005072815566 0.00050235829781 0.00049752263094 0.00049276844969 0.00048809378422 0.00048349703934 
0.00047897561495 0.00047453011403 0.00047015886137 0.00046586053739 0.00046163355656 0.00045747668576 0.00045339018327 0.00044937262693 0.00054123554065 
0.00053563432834 0.00053015057979 0.00052478234411 0.00051952836067 0.00051437766866 0.00050932699866 0.0005043682023 0.00049949588589 0.00049470521611 
0.00048999425731 0.00048535983564 0.00048080062929 0.00047631765174 0.00047190835765 0.00046757214894 0.00046330784816 0.00045911411943 0.00045499129949 
0.00045093777806 0.0005438096524 0.0005381775531 0.00053266339655 0.00052726175826 0.00052197415503 0.00051678738776 0.00051169822201 0.00050670066215 
0.0005017902486 0.00049696059844 0.00049221083324 0.00048753827314 0.00048294140465 0.00047841965781 0.00047397254995 0.00046959828715 0.00046529595908 
0.00046106479385 0.00045690445455 0.00045281364977 0.00054675013479 0.00054108318208 0.0005355339075 0.00053009644634 0.00052477054909 0.00051954376012 
0.00051441345068 0.00050937412517 0.00050442114143 0.00049954992458 0.00049476118816 0.00049004942792 0.00048541410904 0.00048085454928 0.00047636867226 
0.00047195596692 0.00046761510916 0.00046334492851 0.0004591459672 0.00045501688642 0.00055005067596 0.00054434477577 0.00053875594801 0.00053327708171 
0.00052790895933 0.00052263824812 0.00051746365392 0.00051237987137 0.00050738323489 0.00050246942223 0.00049763854056 0.00049288636882 0.00048821332614 
0.00048361518467 0.00047909159714 0.00047464039481 0.00047026016645 0.00046595059146 0.00046171178632 0.00045754168072 0.0005536804373 0.00054793046967 
0.00054229603847 0.00053677170294 0.00053135647842 0.00052603859949 0.00052081623972 0.00051568575144 0.00051064362988 0.00050568598645 0.00050081295329 
0.00049602007939 0.00049130738962 0.00048667294766 0.00048211119094 0.00047762145787 0.00047320221706 0.0004688518047 0.00046457162598 0.00046036082599 
0.00055757270858 0.0005517728942 0.00054608814144 0.00054051332084 0.00053504673656 0.00052967837346 0.00052440681424 0.00051922823781 0.00051413961938 
0.00050913805512 0.00050422232673 0.00049939003992 0.00049463796674 0.0004899643716 0.0004853652996 0.00048083824778 0.00047637972881 0.0004719894477 
0.00046766724294 0.00046341394556 0.00056161850271 0.00055576365868 0.00055002334749 0.00054439385373 0.00053887051596 0.00053345396924 0.00052813203554 
0.00052290498099 0.00051776987049 0.00051272450644 0.00050776548564 0.0005028934937 0.0004981040725 0.00049339325778 0.00048875719327 0.00048419119657 
0.00047969366767 0.00047526348503 0.00047089977657 0.00046660328866 0.00056566041951 0.00055974782388 0.00055395005827 0.00054826391544 0.00054268657276 
0.00053721815085 0.00053184693893 0.00052657304339 0.00052139237089 0.00051630384181 0.00051130391918 0.00050639261069 0.00050156491124 0.00049681724123 
0.00049214428236 0.00048754094891 0.00048300475811 0.00047853378445 0.00047412937385 0.00046979094984 0.00056951501735 0.00056354445511 0.00055768993416 
0.00055194896674 0.00054631904748 0.00054080085146 0.00053538278409 0.00053006379753 0.00052484068158 0.00051971082784 0.00051467131548 0.00050972109285 
0.00050485601087 0.00050007133444 0.00049536127872 0.00049072075641 0.00048614681552 0.0004816378464 0.00047719289468 0.00047281353011 0.00057300529476 
0.00056698061338 0.00056107329697 0.00055528083182 0.00054960252462 0.0005440385637 0.00053857678068 0.00053321665277 0.00052795400444 0.00052278510807 
0.00051770733202 0.00051271939974 0.00050781696933 0.00050299505144 0.0004982484085 0.00049357166714 0.00048896142294 0.00048441603907 0.00047993438139 
0.00047551721199 0.00057600911573 0.00056993633157 0.00056398263209 0.00055814558652 0.00055242426584 0.00054681836251 0.00054131758199 0.00053592016133 
0.00053062033176 0.00052541518483 0.00052030035709 0.00051527553177 0.00051033635859 0.00050547743258 0.00050069450809 0.00049598276116 0.00049133833239 
0.00048675930264 0.00048224437388 0.00047779313908 0.00058050389867 0.00057472997787 0.00056906564408 0.00056351255469 0.00055807030055 0.00055273668816 
0.00054750730521 0.00054237679757 0.00053734189949 0.00053239815398 0.00052754328007 0.00052277546175 0.00051809271437 0.00051349370484 0.0005089757653 
0.00050453816248 0.00050017659145 0.00049588889352 0.00049167243546 0.00048752455745 0.00058378221947 0.00057794108227 0.00057221625561 0.00056660231645 
0.00056110176793 0.00055571174283 0.00055042864424 0.00054524646972 0.00054016167718 0.0005351696188 0.00053026778925 0.00052545395565 0.00052072671222 
0.00051608386011 0.00051152234818 0.00050704202582 0.00050263873811 0.00049830988612 0.00049405246884 0.00048986486276 0.00058679609642 0.00058089520081 
0.0005751128251 0.00056944290011 0.00056388813191 0.00055844588922 0.00055311230897 0.00054788232275 0.00054274981017 0.00053771173507 0.00053276486388 
0.00052790695286 0.00052313584229 0.0005184501764 0.00051384608844 0.00050932367582 0.00050487861114 0.00050050816762 0.00049620981624 0.00049198265643 
0.00058952989754 0.00058357573591 0.00057774054207 0.00057201997654 0.00056641598902 0.00056092599549 0.00055554582413 0.00055027060243 0.00054509394483 
0.00054001216044 0.00053502243231 0.00053012168005 0.00052530823585 0.00052057943966 0.00051593453383 0.00051137020179 0.00050688357576 0.0005024719932 
0.00049813337281 0.00049386674217 0.00059202371308 0.00058602126431 0.00058013973737 0.00057437324203 0.00056872446789 0.00056319100025 0.00055776824001 
0.00055245031795 0.00054723186369 0.00054210890792 0.00053707764769 0.00053213549055 0.00052728037495 0.00052250998988 0.00051782352685 0.00051321730672 
0.00050868979729 0.00050423749582 0.000499859298 0.00049555405092 0.00059436223189 0.0005883158068 0.00058238878845 0.0005765845315 0.00057089528058 
0.00056532095133 0.00055985759256 0.00055449979856 0.00054924089097 0.00054407774087 0.00053900584047 0.00053402283101 0.00052912685581 0.00052431518456 
0.00051958723312 0.00051494025049 0.00051037165143 0.00050587901496 0.00050146166294 0.00049711838711 0.00059665194376 0.00059056433883 0.00058459830577 
0.00057875563823 0.00057302857021 0.00056741630456 0.00056191443844 0.00055651682605 0.00055121819363 0.00054601514257 0.00054090324083 0.00053587971097 
0.00053094211639 0.00052608974 0.00052132023128 0.00051663219171 0.00051202284185 0.00050749021214 0.00050303396852 0.00049865277653 0.00059900010862 
0.00059287420286 0.00058687009266 0.00058099004096 0.00057522525183 0.00056957550504 0.00056403520854 0.00055859868387 0.00055325961783 0.00054801644826 
0.00054286395036 0.00053779955647 0.00053282110243 0.00052792732793 0.00052311661371 0.00051838750394 0.00051373722099 0.00050916501596 0.0005046694291 
0.00050025011406 0.00060149874455 0.00059533319121 0.00058929102496 0.00058337401234 0.00057757126687 0.00057188237441 0.00056630237672 0.00056082602421 
0.00055544801071 0.0005501626386 0.00054496868879 0.00053986289036 0.00053484231845 0.00052990724697 0.0005250550256 0.00052028430053 0.00051559351886 
0.00051098091097 0.00050644596945 0.00050198747054 0.0006042131877 0.00059800771354 0.00059192577571 0.00058596574521 0.00058012644585 0.00057439747566 
0.00056877693539 0.00056325871905 0.00055783844554 0.00055251082591 0.00054727486342 0.00054212661673 0.00053706431625 0.00053208711625 0.00052719299061 
0.00052238079763 0.00051764886978 0.00051299552736 0.00050842040326 0.0005039223216 0.00060718438579 0.00060093722564 0.00059481465143 0.00058881244639 
0.00058293119281 0.00057715896588 0.00057149395036 0.0005659320081 0.00056046839961 0.00055509765211 0.00054981829948 0.00054462715064 0.00053952239273 
0.00053450270865 0.00052956656658 0.00052471239782 0.00051993865631 0.00051524436102 0.00051062821724 0.00050608979754 0.00061042980506 0.00060413876532 
0.0005979722478 0.00059192576551 0.00058599947242 0.0005801818083 0.00057447123406 0.00056886279016 0.00056335251644 0.00055793644728 0.00055261353936 
0.00054737902973 0.0005422314109 0.00053716911858 0.00053219047169 0.00052729394832 0.00052247811406 0.00051774184854 0.00051308429669 0.00050850362062 
0.00061394403634 0.00060760495123 0.00060139131443 0.00059529721419 0.0005893233031 0.00058345737367 0.00057769841003 0.00057204240241 0.00056648495209 
0.00056102206835 0.00055565348924 0.00055037536657 0.00054518432428 0.00054007936658 0.00053505850061 0.00053011958789 0.00052526111977 0.00052048207798 
0.00051578210241 0.00051115889681 0.0006176964448 0.00061130650613 0.00060504211187 0.00059889719944 0.00059287241877 0.00058695573722 0.00058114617261 
0.00057544044001 0.00056983492168 0.00056432505639 0.00055891007292 0.00055358619638 0.00054835210297 0.00054320585371 0.00053814251195 0.00053316158385 
0.00052826022154 0.0005234376172 0.0005186941347 0.00051402756039 0.00062163059728 0.00061518636454 0.00060886772526 0.00060266973138 0.0005965910022 
0.00059062170899 0.00058476054056 0.0005790041448 0.00057334932213 0.00056779178995 0.00056233096283 0.00055696265677 0.00055168504229 0.00054649472845 
0.00054138956502 0.00053636685421 0.00053142325974 0.0005265583719 0.00052177080694 0.00051706001909 0.00062566263959 0.00061916117197 0.00061278584451 
0.00060653184891 0.00060039476637 0.00059437506973 0.00058846184747 0.00058265462909 0.00057695037243 0.00057134545827 0.00056583842746 0.00056042620637 
0.00055510537932 0.00054987284246 0.00054472552513 0.00053966006165 0.000534675031 0.00052976681069 0.00052493577509 0.00052018094958 0.00062968188881 
0.00062312232362 0.00061668867062 0.00061037783513 0.00060418539419 0.00059811224519 0.00059214710016 0.00058629034553 0.00058053721172 0.00057488613797 
0.00056933280755 0.0005638769623 0.00055851307895 0.00055323880769 0.00054804986462 0.00054294254972 0.00053791469394 0.00053296395576 0.00052809063465 
0.00052329273736 0.0006335696794 0.00062695141666 0.00062046061859 0.00061409382701 0.00060784788114 0.00060172198066 0.00059570606131 0.00058980018694 
0.00058400028767 0.0005783036528 0.00057270619357 0.00056720630873 0.00056180049014 0.00055648458887 0.00055125399323 0.00054610558696 0.00054103661118 
0.00053604461656 0.00053112837181 0.00052628808631 0.00063721539949 0.00063054110318 0.00062399545491 0.00061757444632 0.00061127712096 0.0006051012784 
0.00059903766108 0.00059308521343 0.00058724037102 0.00058149918869 0.00057585802125 0.0005703157623 0.00056486781995 0.00055951038156 0.00055423910701 
0.0005490502667 0.00054394112937 0.00053890931611 0.00053395295451 0.00052907246076 0.00064054632609 0.00063381989122 0.00062722314581 0.0006207528158 
0.00061440653961 0.00060818380618 0.00060207470721 0.00059607782385 0.00059019005766 0.00058440576159 0.00057872238202 0.00057313802932 0.00056764914182 
0.00056225029768 0.00055693880861 0.00055171073682 0.00054656282593 0.00054149289421 0.00053649929089 0.00053158078689 0.00063920222017 0.00063290006096 
0.0006267137997 0.00062064353289 0.0006146887132 0.00060884619547 0.00060311390886 0.00059748698089 0.00059196299688 0.00058653798268 0.00058120969693 
0.00057597558538 0.00057083364567 0.00056578166862 0.00056081720444 0.00055593902027 0.00055114362172 0.00054642908726 0.00054179250588 0.00053723140396 
0.00064265781617 0.00063628566286 0.00063003592115 0.00062390240105 0.00061788592481 0.00061198482114 0.00060619510715 0.000600512722 0.00059493511 
0.00058945811765 0.00058407871787 0.00057879511344 0.00057360446087 0.00056850464833 0.00056349293409 0.00055856865369 0.00055372847461 0.00054896923343 
0.00054428925224 0.0005396857988 0.00064594948349 0.00063951347826 0.00063320176306 0.0006270077713 0.0006209330306 0.00061497519759 0.00060913052254 
0.00060339503862 0.00059776537737 0.0005922377696 0.00058680904318 0.00058147645916 0.00057623779393 0.00057109103988 0.00056603303633 0.00056106292572 
0.00055617743886 0.00055137390153 0.00054665037166 0.00054200478415 0.00064906885537 0.00064257175141 0.00063620155407 0.00062995100253 0.00062382117772 
0.00061780928853 0.00061191230518 0.00060612635375 0.00060044640774 0.00059486938043 0.00058939226738 0.00058401215931 0.00057872642364 0.00057353236306 
0.00056842896989 0.00056341348242 0.00055848330754 0.00055363557987 0.0005488686191 0.00054418069562 0.00065203821295 0.00064548523804 0.00063906076987 
0.00063275539746 0.00062657337982 0.00062051098945 0.00061456419973 0.00060872903367 0.00060300041133 0.00059737590858 0.00059185196537 0.00058642497238 
0.00058109267093 0.00057585257924 0.00057070328124 0.00056564260062 0.00056066744175 0.00055577618512 0.00055096607605 0.00054623656798 0.00065491076701 
0.00064830470777 0.00064182511322 0.00063547343137 0.00062924178461 0.00062312998789 0.00061713548895 0.00061125246336 0.00060547706923 0.00059980589361 
0.00059423512087 0.00058876165276 0.00058338346552 0.00057809736968 0.00057290278217 0.00056779721746 0.00056277744054 0.00055784200222 0.00055298940964 
0.00054821825503 0.00065775614365 0.00065109873611 0.00064456943107 0.00063816935841 0.00063189048522 0.00062573206337 0.00061969064926 0.00061376056084 
0.00060793863654 0.00060222116316 0.00059660436179 0.00059108481001 0.00058566029021 0.0005803286051 0.00057508870585 0.00056993789224 0.00056487350789 
0.00055989450566 0.00055499919143 0.00055018602135 0.0006606452979 0.0006539392106 0.00064736139182 0.00064091395629 0.00063458820517 0.00062838339933 