# vtk DataFile Version 5.1
vtk output
ASCII
DATASET STRUCTURED_POINTS
DIMENSIONS 20 20 20
SPACING 0.005 0.005 0.005
ORIGIN 0.2189 -0.051172 0.02882
POINT_DATA 8000
FIELD FieldData 1
potential 1 8000 double
0.0076828930261 0.0075442371174 0.0074037795791 0.0072622307008 0.0071202141375 0.0069781021395 0.0068360887375 0.0066942765072 0.0065527936331 
0.006411971349 0.0062722098682 0.0061338676065 0.0059972126598 0.0058623744017 0.0057294567847 0.0055984924051 0.0054694957846 0.0053425081511 
0.0052175794862 0.0050947214939 0.0080689353773 0.0079187697945 0.0077666964179 0.0076135450491 0.0074599852462 0.0073064710554 0.0071532566355 
0.0070004383243 0.0068481905996 0.0066967828975 0.0065466230737 0.0063981020252 0.0062515136732 0.0061070362927 0.0059647341371 0.0058246297725 
0.0056867239888 0.0055509960826 0.0054175346338 0.0052863889951 0.0084555010823 0.0082933673582 0.0081292309764 0.0079639847497 0.0077983763332 
0.007632953761 0.0074680167622 0.0073037229723 0.0071402274745 0.0069777883294 0.0068167891143 0.0066576319493 0.0065006618725 0.0063460741031 
0.0061939723564 0.0060443189398 0.0058970886936 0.0057522509793 0.0056099058474 0.0054701615523 0.0088430704349 0.0086684399721 0.0084917372204 
0.0083138676539 0.0081356993389 0.0079578190776 0.0077806015743 0.0076042427448 0.0074289023606 0.0072548541985 0.0070824479523 0.0069121243567 
0.0067442608171 0.0065790702563 0.0064166467175 0.0062569755245 0.0060999793712 0.0059456709879 0.0057941248945 0.0056455245906 0.0092394846865 
0.0090515014808 0.0088614575638 0.0086702970737 0.0084788079526 0.0082876564738 0.0080973331828 0.0079080613786 0.0077200562357 0.0075335748896 
0.0073490099185 0.007166774863 0.0069872956211 0.0068107925605 0.0066373745888 0.006467032976 0.0062997101578 0.0061354564653 0.005974331154 
0.0058165509517 0.0096575182462 0.0094549702137 0.0092504442997 0.0090447727312 0.0088388432238 0.0086332873234 0.0084286517707 0.0082252562076 
0.0080233913363 0.0078233638896 0.0076255674653 0.0074304325249 0.0072383410147 0.0070495549759 0.0068642045535 0.0066823142617 0.006503913219 
0.0063290250518 0.0061577486184 0.0059902800388 0.010111145863 0.0098922858091 0.0096715165439 0.0094496926397 0.0092276352673 0.0090060646479 
0.0087855345307 0.008566465133 0.0083492256143 0.008134174369 0.007921766357 0.0077124023343 0.0075064402886 0.0073041409067 0.0071056912745 
0.0069111750591 0.0067206826005 0.0065342676838 0.0063520187474 0.0061740843568 0.010612264986 0.010374832274 0.010135600568 0.0098954105817 
0.0096550989477 0.0094154080511 0.009177048212 0.0089404197539 0.0087060188486 0.0084742180648 0.0082454943795 0.0080202591095 0.0077988796288 
0.007581631367 0.0073687223879 0.0071603153255 0.0069565261292 0.0067574369919 0.0065631598467 0.0063737719446 0.011170083983 0.010911353601 
0.010650961888 0.010389759219 0.010128651939 0.0098684733771 0.0096098731353 0.0093534841898 0.0090997674951 0.0088492022413 0.0086022114687 
0.0083592601672 0.0081207031239 0.0078868391445 0.0076579184144 0.0074341646251 0.0072156916479 0.0070026080673 0.0067950280342 0.0065929893282 
0.011791769294 0.01150869158 0.011224112142 0.010938947105 0.010654155723 0.010370632411 0.010089144068 0.0098103658943 0.0095348848381 
0.0092632151768 0.0089957734531 0.0087330065027 0.0084752934793 0.0082229811471 0.0079763290121 0.0077355567723 0.0075008370121 0.0072722962605 
0.0070499824025 0.0068339463733 0.012484233012 0.012173338557 0.011861135966 0.011548588467 0.011236739424 0.010926711676 0.010619301026 
0.01031524494 0.010015210206 0.0097197460859 0.0094293492714 0.0091444618737 0.0088654305848 0.0085925611916 0.0083262180402 0.0080666142686 
0.0078138993498 0.0075682242988 0.0073296411207 0.0070981384468 0.01325472984 0.012911986888 0.012568169752 0.01222444178 0.011881940807 
0.011541777356 0.011204949118 0.010872290841 0.010544556614 0.01022234565 0.0099061919073 0.0095964849607 0.0092937009814 0.0089980661138 
0.0087098816069 0.0084293976002 0.008156761368 0.0078921128393 0.0076355050306 0.007386930995 0.014111449894 0.013732332851 0.013352371533 
0.012972973292 0.012595432502 0.012221035566 0.011850904675 0.011485949936 0.011127025983 0.010774688693 0.010429564564 0.010092179017 
0.0097628512597 0.0094419249319 0.0091295651762 0.0088259578938 0.0085312969472 0.0082456789778 0.0079691479508 0.0077017110916 0.015062868874 
0.014642042727 0.014220720583 0.013800564943 0.013383154501 0.01296990924 0.012562053022 0.012160583501 0.011766359122 0.01138015337 
0.011002607795 0.010634286346 0.010275435653 0.0099263958148 0.0095872830196 0.0092581335463 0.0089390903322 0.008630340561 0.0083318429377 
0.0080436059579 0.016116158033 0.015647504623 0.015178858643 0.014712228533 0.014249500216 0.013792245543 0.013341797929 0.012899171993 
0.012465262257 0.012041002765 0.01162711406 0.011224208164 0.010832601479 0.01045244686 0.010083738568 0.0097264610223 0.0093806135973 
0.0090463076694 0.0087236273213 0.0084125936231 0.017274138542 0.016751040201 0.016228532143 0.015709176852 0.015195159285 0.014688267711 
0.014189879399 0.013701054934 0.013222739608 0.012755966943 0.012301593116 0.011860283347 0.011432345743 0.011017835423 0.010616592472 
0.010228413807 0.0098532150185 0.0094910581423 0.0091419525347 0.0088060139221 0.018532384385 0.017947830517 0.017364721158 0.01678607612 
0.016214547029 0.015652095636 0.01510016842 0.014559906662 0.014032357614 0.013518483579 0.013019381237 0.012535689128 0.012067733248 
0.011615460614 0.011178585874 0.010756697308 0.010349662449 0.0099573670057 0.0095798471584 0.0092171371692 0.019878792016 0.019225770463 
0.018575173898 0.017930592499 0.017295139242 0.016671158737 0.01606003937 0.015463104359 0.014881432502 0.014316073364 0.013768017597 
0.013237951543 0.012726310383 0.012232884919 0.011757337474 0.011299110474 0.010857850526 0.010433482417 0.010025862443 0.0096349111925 
0.021299775579 0.020570936147 0.019845808133 0.019128535254 0.018422565234 0.017730609896 0.017054545912 0.016395628741 0.015754910068 
0.015133497793 0.014532378772 0.013952163192 0.013393218446 0.01285536664 0.012338257598 0.011841257147 0.011363857758 0.010905724052 
0.010466747968 0.010046555381 0.022790274004 0.021977526916 0.021169890323 0.020372269381 0.019588603196 0.018821871404 0.018074382711 
0.017347603403 0.016642581389 0.015960274681 0.015301569864 0.014667172422 0.014057301824 0.013471875515 0.012910442323 0.012372375486 
0.011857037828 0.011363845872 0.010892340702 0.010442149541 0.0088015486341 0.008644652628 0.0084857405306 0.0083253988701 0.008164152785 
0.0080024519409 0.0078406241193 0.0076789362052 0.0075176580602 0.0073571075993 0.0071976248458 0.007039528472 0.0068830910015 0.0067285024789 
0.006575914642 0.0064254520681 0.0062771815341 0.0061311744725 0.0059875174133 0.0058462712371 0.0092318513609 0.0090621293305 0.0088903407314 
0.0087171095392 0.0085430510024 0.0083686355442 0.0081942510056 0.0080201967265 0.0078467496958 0.0076742378042 0.0075030174479 0.0073334358018 
0.007165774896 0.007000259243 0.0068370251869 0.0066761961491 0.0065178511043 0.0063620410335 0.0062088557263 0.0060583859945 0.0096751163437 
0.0094917396783 0.0093062203701 0.0091192588539 0.0089315007907 0.0087435455416 0.0085557825328 0.0083685374989 0.0081821292551 0.0079968914271 
0.0078132020853 0.0076314048728 0.0074518156044 0.0072746705068 0.007100142519 0.0069283207806 0.0067592958133 0.0065931077076 0.0064298712405 
0.0062696846789 0.010133075127 0.0099350706861 0.0097348810271 0.0095332271581 0.0093308753751 0.0091284209456 0.0089263190037 0.0087249649449 
0.0085246669183 0.0083258258518 0.008128784374 0.0079339358089 0.0077416244647 0.0075520878444 0.0073655126164 0.0071820006266 0.007001616646 
0.0068244569605 0.0066506092884 0.0064802108233 0.010611550191 0.010397647673 0.010181589807 0.0099641231406 0.0097460004354 0.0095278604655 
0.0093102880418 0.0090936676153 0.0088783985434 0.0086648528059 0.008453424179 0.0082445306336 0.0080385208683 0.0078356583009 0.0076361527203 
0.0074401093988 0.0072476047945 0.0070587565243 0.0068736718959 0.0066924816477 0.011119309097 0.010888006066 0.010654541427 0.010419739208 
0.01018436514 0.0099491176534 0.0097145986156 0.0094812853798 0.0092496359424 0.0090200608265 0.0087929889591 0.0085688188215 0.0083479274044 
0.008130614068 0.0079170885135 0.0077074992521 0.0075019514146 0.0073005628324 0.0071034351361 0.0069107302691 0.011666508706 0.011415802522 
0.011162997706 0.010908939317 0.010654453686 0.010400269893 0.01014701624 0.0098953055916 0.0096455585553 0.009398332681 0.0091540490912 
0.0089131236457 0.0086759496215 0.0084428286347 0.0082140095357 0.007989669489 0.0077699460016 0.0075549816367 0.0073448673459 0.0071397469957 
0.012262801562 0.011990310714 0.011715812651 0.011440186427 0.011164281615 0.010888918994 0.010614849182 0.010342636393 0.010072888649 
0.0098060825013 0.0095427275574 0.009283312852 0.0090281829865 0.0087776971807 0.0085321036184 0.0082916216823 0.0080564235464 0.0078266310971 
0.0076023911114 0.0073837744938 0.012916879213 0.01261980426 0.012320794813 0.012020851914 0.01172088362 0.011421780161 0.011124308497 
0.010829229882 0.010537143275 0.0102485971 0.0099641140639 0.0096841820482 0.0094092190053 0.0091395565869 0.0088755108733 0.0086173215927 
0.0083651414524 0.0081191283659 0.0078794158671 0.0076460562664 0.0136365219 0.013311587601 0.012984860749 0.012657416227 0.012330319299 
0.012004480595 0.011680803413 0.0113600816 0.011043005365 0.010730231404 0.010422226583 0.010119555253 0.0098226193269 0.0095318181376 
0.0092474385138 0.0089697320156 0.0086989243673 0.0084351065418 0.0081784377376 0.0079289355177 0.014429044267 0.014072578003 0.013714456066 
0.013355943615 0.012998185456 0.012642263424 0.012289128645 0.011939639762 0.011594620738 0.011254738766 0.010920586038 0.010592638956 
0.01027138184 0.009957170739 0.009650370392 0.0093512148928 0.0090598899917 0.0087765380262 0.0085012779058 0.0082340990616 0.015301903534 
0.014909635436 0.014516050237 0.01412243542 0.013730052126 0.013340183182 0.012953899279 0.012572131452 0.012195799523 0.011825641549 
0.011462295612 0.011106263218 0.010758073966 0.010418057328 0.010086506839 0.0097637060545 0.0094498435287 0.0091450273579 0.0088493619609 
0.0085628485369 0.016262691545 0.015829842335 0.015395924631 0.014962520241 0.014531044981 0.014102905345 0.013679338973 0.013261448741 
0.012850097078 0.012446078148 0.012050222501 0.011662989392 0.011284908602 0.010916363996 0.010557588566 0.01020878206 0.0098701576009 
0.009541789947 0.0092237762005 0.0089160882975 0.017318592949 0.016839671312 0.016360108931 0.015881677958 0.015406079824 0.014934858852 
0.014469376764 0.014010825763 0.013560290673 0.013118593369 0.012686545637 0.012264674109 0.011853537254 0.011453462187 0.011064697038 
0.0106873387 0.010321529405 0.0099674101258 0.0096249643161 0.009294178862 0.0184755927 0.017944522709 0.017413272398 0.016883986388 
0.016358610064 0.015838931294 0.01532647977 0.014822517121 0.014328141134 0.013844399039 0.013372086428 0.012911884523 0.012464250485 
0.012029440155 0.011607698532 0.011199024236 0.010803540102 0.010421231218 0.010052188019 0.0096962872159 0.019737355936 0.019147299579 
0.018557686641 0.017971112648 0.01738981784 0.016815816681 0.016250750388 0.015696071662 0.015152952651 0.014622486734 0.014105598612 
0.01360299361 0.013115104745 0.012642184752 0.01218430305 0.011741478324 0.011313648174 0.010900802322 0.010502857906 0.010119809339 
0.021104130399 0.020447705424 0.019792561162 0.019141672317 0.018497794514 0.017863084641 0.017239406071 0.016628340685 0.016031146425 
0.015449044437 0.014882981888 0.014333705441 0.013801627567 0.013286960866 0.012789692267 0.012309687061 0.011846841511 0.011401018783 
0.01097204956 0.010559880546 0.022573947188 0.021843097429 0.021114563075 0.020391898499 0.019678166749 0.018975913885 0.018287159527 
0.017613662601 0.016956822293 0.016317861208 0.015697784231 0.015097344104 0.014516952959 0.013956767592 0.013416733179 0.012896546011 
0.012395990004 0.011914864072 0.011452885294 0.011009762601 0.024146426833 0.023332250285 0.022521777548 0.021718940433 0.020927362395 
0.020149934719 0.019389075238 0.018646507711 0.017923885135 0.017222430533 0.016543182183 0.015886846029 0.01525388183 0.01464430513 
0.014058008175 0.013494636767 0.012953773206 0.012435049836 0.01193814241 0.011462477565 0.025827908365 0.024920164757 0.024017722485 
0.023125206563 0.022246688717 0.021385467318 0.020544335911 0.019725334577 0.018930041481 0.018159806738 0.017415623418 0.016698224386 
0.016007952707 0.015344869545 0.01470867945 0.014098959952 0.013515129723 0.012956590037 0.012422735295 0.011912947152 0.009908442139 
0.0097335204341 0.0095563395533 0.0093774595474 0.0091973854492 0.0090165966308 0.0088354895973 0.0086544421319 0.0084737824261 0.0082938758547 
0.0081150418346 0.0079376102857 0.0077618542246 0.0075880224396 0.0074163066865 0.0072468659582 0.0070798275384 0.0069153168988 0.0067534183127 
0.0065942407402 0.010385202166 0.010196120211 0.010004738946 0.0098116542994 0.0096174268562 0.0094225769619 0.0092275678364 0.0090327796222 
0.0088385825335 0.008645356774 0.0084534637243 0.00826323697 0.0080749839396 0.0078889587794 0.0077053526185 0.0075243578383 0.0073460886279 
0.0071706688851 0.0069982004289 0.0068288065644 0.0108835997 0.01067924527 0.01047253915 0.010264093684 0.010054618606 0.0098446190936 
0.0096346202071 0.0094250433402 0.00921629442 0.0090087684776 0.0088028492755 0.0085989035002 0.0083972446922 0.0081981567738 0.0080018370806 
0.007808481317 0.0076182333771 0.0074311910132 0.0072474863326 0.0070672317404 0.011406064981 0.011185152494 0.01096182431 0.010736831324 
0.010510837255 0.01028447195 0.010058274397 0.0098327073251 0.0096082402066 0.009385288557 0.0091642581831 0.0089455456569 0.0087294719356 
0.0085163443914 0.0083063983902 0.0080998078122 0.0078967347924 0.0076973037468 0.0075016402629 0.0073098700013 0.011957439339 0.011718433473 
0.011477047706 0.01123400913 0.010990047801 0.01074586033 0.010502054354 0.010259138901 0.010017621275 0.0097779273973 0.0095405241584 
0.0093058260895 0.0090741866636 0.0088459219236 0.0086212806239 0.0084004604374 0.0081836354079 0.007970925822 0.0077624832607 0.0075584392445 
0.012544581298 0.012285693464 0.0120244199 0.011761571205 0.011497922337 0.011234221162 0.010971109436 0.010709208827 0.010449036187 
0.01019110839 0.0099358769457 0.0096837844189 0.0094352146183 0.0091905211276 0.0089499612843 0.0087137603157 0.0084820882825 0.0082551049407 
0.0080329560051 0.0078157629908 0.013175465536 0.012894507613 0.012611199057 0.012326423717 0.012040991798 0.011755767838 0.01147140577 
0.011188609377 0.010907913846 0.010629939521 0.010355153502 0.010084038246 0.0098169950261 0.0095543860851 0.0092964979985 0.0090435884405 
0.008795842831 0.008553407117 0.0083164582692 0.0080851081635 0.013858261211 0.013552682414 0.013244818656 0.012935619573 0.012625984487 
0.012316839394 0.012008917082 0.011702972492 0.011399664438 0.011099535814 0.010803247724 0.010511224434 0.010223919044 0.0099417006838 
0.0096648945884 0.009393760681 0.009128509245 0.0088693193955 0.0086163172287 0.0083696243187 0.014600956087 0.014267799953 0.013932430878 
0.013595910365 0.013259258287 0.012923404027 0.012589266777 0.012257647855 0.011929242087 0.011604680942 0.011284600796 0.010969535965 
0.010659922443 0.010356186 0.01005866903 0.0097676180371 0.0094832680857 0.0092057932966 0.0089353474463 0.0086720029362 0.015411206218 
0.015047010576 0.014680763047 0.014313612376 0.013946695005 0.01358105857 0.013217652731 0.012857399823 0.012501086018 0.012149459529 
0.011803088719 0.011462594094 0.011128420659 0.010801044935 0.010480770974 0.010167917672 0.0098627060314 0.0095652905201 0.0092758299727 
0.0089943680716 0.016296354958 0.015897292956 0.015496344304 0.015094789711 0.014693944565 0.014294937779 0.013898871065 0.013506707512 
0.0131193674 0.012737626136 0.012362149451 0.011993539135 0.011632286822 0.011278877478 0.010933663417 0.010596920603 0.010268877704 
0.0099497028253 0.0096395153308 0.0093383312142 0.017263996715 0.016825606484 0.016385599641 0.015945396451 0.015506432348 0.015070049435 
0.01463740412 0.014209669389 0.013787758134 0.013372552148 0.012964795314 0.012565116124 0.012174040207 0.011792003667 0.011419362816 
0.011056438476 0.010703428487 0.010360459637 0.010027669284 0.0097050749851 0.018321271648 0.01783855841 0.017354542312 0.016870832385 
0.016389132447 0.015910857255 0.015437430183 0.014969973156 0.014509586228 0.01405717691 0.013613643909 0.013179563913 0.012755572307 
0.012342059039 0.011939375743 0.011547773127 0.011167458801 0.010798559544 0.01044115151 0.010095215293 0.019475255552 0.018942576966 
0.018408979665 0.01787643358 0.017346715184 0.016821518689 0.016302359849 0.015790588906 0.015287387067 0.014793785027 0.014310612557 
0.013838522305 0.013378214823 0.012930110754 0.012494461498 0.012071511178 0.011661412329 0.011264262789 0.010880086842 0.010508871333 
0.020732170221 0.020143251838 0.019553902398 0.018966408589 0.018382842633 0.017805121602 0.017234964921 0.016673794917 0.016122965067 
0.015583572047 0.015056525559 0.014542638835 0.014042307683 0.013556181438 0.01308445509 0.01262726822 0.012184740042 0.011756868064 
0.011343716608 0.010945144266 0.022097344885 0.021445037692 0.020792987447 0.020143853167 0.019499995116 0.018863569753 0.018236477588 
0.017620382088 0.017016652424 0.016426554012 0.015851038568 0.015290951091 0.014746817698 0.014219058926 0.013707879355 0.013213408146 
0.012735653578 0.012274533698 0.011830036058 0.011401994998 0.023574858992 0.022851363286 0.022128945525 0.02141065781 0.020699364572 
0.019997375307 0.019306901043 0.018629754331 0.017967422135 0.017321281565 0.016692339101 0.016081490339 0.015489231723 0.014915962185 
0.01436180291 0.013826831742 0.013310950959 0.0128140108 0.012335803252 0.011876173836 0.025169066097 0.024365454821 0.023564148002 
0.022768492714 0.021981727605 0.02120670492 0.020445685175 0.019700734468 0.018973571933 0.018265543582 0.017577787764 0.016911204875 
0.016266275333 0.015643357066 0.015042518292 0.014463629204 0.013906628908 0.013371199737 0.012856976999 0.012363631861 0.026886752123 
0.025993114762 0.025103076786 0.02422060666 0.023349435666 0.022492773772 0.021653199116 0.020832957718 0.02003396362 0.019257648427 
0.018505189128 0.017777457068 0.017074975747 0.016397967768 0.01574646502 0.015120229735 0.014518905503 0.013942251976 0.013389627422 
0.012860510383 0.028740141072 0.0277447405 0.026754717681 0.025774623294 0.024808647788 0.023860469372 0.022933154704 0.022029106 
0.021150339508 0.020298453495 0.01947467135 0.018679765518 0.01791429316 0.017178360728 0.016471878225 0.015794485618 0.015145650049 
0.014524792497 0.013931320142 0.013364313431 0.010997042004 0.010804567058 0.010609596468 0.010412671186 0.010214323321 0.010015054463 
0.00981530798 0.0096155104125 0.0094160757139 0.0092173641682 0.009019744313 0.0088235538901 0.0086290831686 0.0084366156494 0.0082463764354 
0.0080585811952 0.0078733728714 0.0076909127965 0.0075113329879 0.0073347503526 0.011520246383 0.011312318881 0.011101835986 0.010889400692 
0.01067559938 0.01046096063 0.01024598652 0.01003113315 0.0098168450347 0.0096035220363 0.0093915608164 0.0091813132678 0.0089731134218 
0.0087672312453 0.0085639230795 0.008363410025 0.0081658560965 0.0079714195139 0.0077802325534 0.007592434992 0.012071467147 0.011846727469 
0.011619415575 0.011390149718 0.011159577748 0.010928272085 0.010696805673 0.010465671724 0.010235332416 0.010006242965 0.0097788079773 
0.0095534171032 0.0093304212707 0.0091101264672 0.0088927763072 0.0086786234212 0.0084678491074 0.0082605994381 0.0080570160354 0.0078572627105 
0.012653553413 0.012410518597 0.012164865615 0.011917281193 0.011668467263 0.011419075677 0.011169683417 0.010920877977 0.010673149159 
0.010426969235 0.010182804561 0.0099410613675 0.0097021023257 0.0094662587106 0.0092338164197 0.009005005727 0.0087800425836 0.0085590704036 
0.0083422549519 0.0081297434905 0.013270900696 0.013007867129 0.012742155174 0.012474559763 0.01220580823 0.011936670729 0.011667765938 
0.011399712635 0.011133058822 0.010868314256 0.010605983164 0.010346503147 0.010090266103 0.0098376314063 0.0095888895533 0.0093442823719 
0.009104051148 0.0088683540072 0.0086373560755 0.0084112056839 0.01392938803 0.013644273617 0.013356476171 0.013066904918 0.012776324516 
0.012485527033 0.01219522285 0.011906104452 0.011618774375 0.011333790662 0.011051667257 0.010772881853 0.010497877719 0.010227009886 
0.0099606185078 0.0096989508247 0.0094422439278 0.0091906847792 0.0089444466858 0.0087036624792 0.014635665545 0.014326124137 0.014013975943 
0.013700099659 0.013385434357 0.013070783892 0.012756963225 0.012444692493 0.01213466168 0.011827487095 0.011523717692 0.011223868909 
0.010928391887 0.010637693412 0.010352107405 0.010071930963 0.0097974047327 0.009528709599 0.0092660268567 0.0090095030579 0.015397017127 
0.015060344345 0.014721100293 0.014380294363 0.014038900102 0.013697899006 0.013358085836 0.01302030771 0.012685264691 0.0123536757 
0.012026150821 0.011703220725 0.011385371168 0.011073021806 0.010766545295 0.01046624936 0.010172365109 0.0098851171121 0.0096046546184 
0.0093311243133 0.016220732109 0.015853815367 0.015484401387 0.015113613631 0.014742546076 0.014372216755 0.01400361964 0.013637631341 
0.013275035946 0.012916552888 0.012562883428 0.01221459321 0.011872210303 0.011536197167 0.011206913281 0.010884676484 0.010569761693 
0.010262358005 0.0099626379291 0.009670698232 0.017114182916 0.016713419956 0.016310291023 0.015906072215 0.015501954415 0.015099081427 
0.014698480389 0.014301195471 0.013908101868 0.013519947374 0.013137467634 0.012761306024 0.012392020667 0.012030065999 0.011675842799 
0.011329698694 0.010991869354 0.010662561319 0.010341935264 0.010030076046 0.018084606945 0.01764600352 0.017205214095 0.016763628689 
0.016322630353 0.015883470627 0.015447321895 0.015015306797 0.014588384179 0.014167435193 0.01375318365 0.013346348503 0.012947470175 
0.012557108392 0.012175630278 0.011803360069 0.0114405696 0.011087455477 0.010744134005 0.010410694484 0.019139512671 0.018658481127 
0.01817548198 0.017692103957 0.017209865031 0.016730264183 0.016254578876 0.015783966354 0.015319556631 0.014862284536 0.014412954184 
0.013972358527 0.013541021929 0.013119457102 0.012708145034 0.012307369752 0.011917375487 0.011538353981 0.011170420534 0.010813577401 
0.020286111745 0.019757419317 0.019227123328 0.018697021733 0.018168802183 0.017644094845 0.017124333905 0.016610872324 0.016104836267 
0.015607363882 0.015119333344 0.014641467705 0.014174448279 0.01371876093 0.013274801046 0.01284291298 0.012423297708 0.012016115873 
0.011621457568 0.011239318752 0.021531681175 0.020949560285 0.020366238225 0.01978375272 0.019204066892 0.018628987042 0.018060151616 
0.017499048283 0.016947006399 0.016405071801 0.015874248852 0.015355377728 0.014849126784 0.014356019622 0.01387640826 0.013410586243 
0.012958754705 0.012521022126 0.01209742216 0.011687931091 0.022883150589 0.022241050607 0.021598273619 0.020957188327 0.020319995426 
0.019688761531 0.01906527647 0.018451234458 0.01784805976 0.017256959833 0.016679024503 0.016115048961 0.015565715568 0.015031608132 
0.014513072877 0.01401030775 0.01352345669 0.013052635233 0.012597771814 0.01215877 0.024347406072 0.023637945267 0.022928539718 
0.022221842848 0.021520378046 0.020826479183 0.020142224855 0.019469394547 0.018809570944 0.018164126287 0.01753416109 0.016920599419 
0.016324079608 0.015745135425 0.015184122677 0.0146411935 0.014116428938 0.013609767833 0.013121186235 0.012650495342 0.025931375244 
0.02514632903 0.024362117024 0.023581965315 0.022808689543 0.022044918187 0.021292972754 0.020554892033 0.019832359052 0.019126866277 
0.018439605961 0.017771541412 0.017123302496 0.016495416261 0.015888135696 0.015301589893 0.014735763449 0.014190537486 0.013665677252 
0.01316097714 0.027643233249 0.026773168955 0.025905086832 0.025042555707 0.024188982373 0.023347225793 0.02251991037 0.021709329979 
0.020917301836 0.020145500807 0.019395130605 0.018667203425 0.017962339217 0.01728101913 0.016623424771 0.01598959737 0.015379445353 
0.014792683341 0.01422894433 0.013687902779 0.029493572116 0.028527742718 0.02756526494 0.02661031421 0.025666728735 0.024737814518 
0.023826472545 0.022935231876 0.022066213498 0.021221081887 0.020401146231 0.019607440229 0.018840591749 0.018100981592 0.017388731263 
0.016703718947 0.016045691048 0.015414320063 0.014809014159 0.014229198854 0.031497644668 0.03042348154 0.029354505544 0.028295394331 
0.027250581018 0.026223872884 0.025218623666 0.024237462896 0.023282815166 0.022356390775 0.02145968577 0.020593643955 0.019758866896 
0.018955601653 0.018183909257 0.017443482031 0.016733880475 0.016054521071 0.01540475076 0.014783677666 0.012062288733 0.011852922204 
0.011640813434 0.011426512514 0.011210587053 0.010993537949 0.010775883891 0.010558077776 0.010340571105 0.010123754263 0.0099080372005 
0.0096937703818 0.0094812813517 0.0092708756554 0.0090628155215 0.0088573302689 0.008654617825 0.0084548626067 0.0082582167388 0.008064823235 
0.012630697234 0.012404649182 0.012175790602 0.011944742815 0.011712109423 0.011478456551 0.011244320878 0.01101020935 0.010776609832 
0.010543966116 0.010312693516 0.01008318809 0.0098557890607 0.0096308188318 0.009408565419 0.0091892769285 0.0089731567158 0.0087603865598 
0.0085511430619 0.0083455673175 0.013231992398 0.012987756307 0.012740665887 0.012491385746 0.012240571209 0.011988859202 0.011736829476 
0.011485046277 0.01123402551 0.010984244382 0.010736163045 0.010490187893 0.010246713643 0.010006058783 0.0097685352964 0.0095344054442 
0.0093038961014 0.0090771837985 0.0088544564351 0.0086358688202 0.013869320493 0.013605218243 0.013338211197 0.013069034085 0.012798420925 
0.012527019044 0.012255529763 0.01198452884 0.011714582836 0.011446214326 0.011179921827 0.010916138193 0.01065527538 0.010397694971 
0.010143717798 0.0098936198332 0.0096476545944 0.009405995824 0.0091688309455 0.008936319615 0.014546875099 0.014261007585 0.013972204653 
0.013681229799 0.013388946143 0.013096092509 0.01280334958 0.012511404114 0.012220835118 0.011932251523 0.011646174089 0.011363068604 
0.011083383709 0.01080749633 0.010535746703 0.010268438761 0.010005815971 0.0097480970474 0.0094954506653 0.0092480543906 0.015269919395 
0.014960056685 0.014647270968 0.014332416067 0.014016365357 0.013699935297 0.013383952116 0.013069083156 0.012756033977 0.012445403137 
0.012137761462 0.011833642961 0.01153350874 0.011237767844 0.010946791426 0.01066088571 0.010380298695 0.010105276753 0.0098359929114 
0.009572608406 0.016044427174 0.015708107785 0.015368833205 0.015027630417 0.014685430629 0.014343117584 0.014001578172 0.013661556456 
0.013323852344 0.012989107019 0.012657946752 0.012330912163 0.012008515882 0.011691198394 0.011379353272 0.011073300145 0.010773297435 
0.010479602067 0.010192393261 0.0099118179859 0.016876997768 0.016511325134 0.016142763611 0.0157723921 0.015401295 0.015030427278 
0.014660731694 0.014293076625 0.013928260418 0.013567077021 0.013210151328 0.01285807558 0.012511403049 0.012170597526 0.011836057825 
0.011508135122 0.011187111072 0.010873236335 0.010566666589 0.010267580689 0.017774420681 0.017376153838 0.016975078538 0.016572398023 
0.016169254795 0.015766781223 0.015366026866 0.014967897765 0.014573306209 0.014183030716 0.013797839788 0.013418351167 0.013045142975 
0.012678712039 0.012319469012 0.011967792301 0.011623963967 0.01128823023 0.010960752611 0.010641680585 0.018743758176 0.018309204639 
0.017871942756 0.017433354993 0.016994709713 0.016557211449 0.016122054272 0.015690282942 0.015262832406 0.014840582633 0.014424345659 
0.014014784514 0.013612533911 0.013218102646 0.012831959049 0.012454436082 0.012085840727 0.011726406317 0.011376306288 0.011035654261 
0.019792109679 0.019317115646 0.018839550468 0.01836099007 0.017882882784 0.017406559025 0.016933282891 0.01646425983 0.01600052571 
0.015543078916 0.015092701734 0.014650155114 0.014216118621 0.013791107794 0.013375592636 0.012969936492 0.012574448301 0.012189332126 
0.011814767712 0.011450807331 0.02092691736 0.020406734976 0.019884201631 0.019361108744 0.018839078707 0.018319620751 0.017804119422 
0.017293872905 0.016790067666 0.016293747974 0.015805836789 0.015327083235 0.014858193443 0.014399727953 0.013952185442 0.013515909707 
0.013091193497 0.012678244187 0.012277189377 0.011888053091 0.022155497395 0.021584794139 0.021012178554 0.020439464525 0.019868527968 
0.019301092515 0.018738670485 0.018182780278 0.017634671038 0.017095494555 0.01656619507 0.016047683042 0.01554063055 0.015045635796 
0.014563134017 0.014093523932 0.013637067079 0.013193937844 0.012764232362 0.012347981677 0.023485508953 0.022858318711 0.022229604151 
0.021601495023 0.02097609357 0.020355300546 0.019740873662 0.0191344515 0.018537345934 0.017950826202 0.017376026807 0.016813800041 
0.016264927129 0.015729978749 0.015209401035 0.014703538272 0.014212637913 0.013736826078 0.013276176394 0.012830643325 0.024924572918 
0.024234167426 0.023542778967 0.022852863296 0.022166742014 0.021486592408 0.020814368339 0.020151856398 0.019500586909 0.018861937369 
0.018237068498 0.017626819507 0.017032118379 0.016453512224 0.015891426407 0.015346170667 0.014817933549 0.014306806182 0.013812778813 
0.013335758582 0.02648075362 0.025719588077 0.024958108037 0.024199147791 0.023445313859 0.022699091712 0.021962688367 0.021238017193 
0.020526849094 0.019830625955 0.019150602028 0.01848772251 0.017842851619 0.017216553455 0.016609271435 0.016021233153 0.015452578315 
0.014903284176 0.014373340489 0.013862501693 0.028162912092 0.027322370292 0.02648239231 0.025646230719 0.02481686431 0.023997040388 
0.023189282237 0.022395723786 0.021618261552 0.020858496303 0.020117782827 0.019397125188 0.01869733343 0.018019020763 0.017362529205 
0.016728097948 0.016115727541 0.015525298983 0.014956696572 0.014409611637 0.029981342752 0.02905171409 0.028123705597 0.027201104768 